/*--------------------------------*- C++ -*----------------------------------*\
| =========                 |                                                 |
| \\      /  F ield         | OpenFOAM: The Open Source CFD Toolbox           |
|  \\    /   O peration     | Version:  4.x                                   |
|   \\  /    A nd           | Web:      www.OpenFOAM.org                      |
|    \\/     M anipulation  |                                                 |
\*---------------------------------------------------------------------------*/
FoamFile
{
    version     2.0;
    format      ascii;
    class       surfaceScalarField;
    location    "0.35";
    object      alphaPhi;
}
// * * * * * * * * * * * * * * * * * * * * * * * * * * * * * * * * * * * * * //

dimensions      [0 3 -1 0 0 0 0];

internalField   nonuniform List<scalar> 
370
(
1.01741e-57
-5.71911e-74
4.83328e-52
-2.1447e-66
2.07101e-47
-2.59991e-60
6.17321e-45
-1.3516e-57
7.47862e-43
-2.88395e-55
5.16819e-41
-3.5823e-53
5.81383e-26
-7.45688e-26
5.98415e-25
-7.07058e-25
2.87036e-24
-3.16456e-24
-3.32021e-24
4.83272e-73
-2.97919e-86
1.596e-65
-3.01108e-77
1.76055e-59
-4.56802e-70
9.15513e-57
-3.24271e-67
1.93073e-54
-9.92444e-65
2.37344e-52
-1.82819e-62
4.89959e-25
-5.64528e-25
4.64824e-24
-4.86534e-24
1.99483e-23
-1.84646e-23
-1.81851e-23
4.56228e-85
-7.35625e-94
3.9635e-76
-3.95271e-84
5.36334e-69
-2.23975e-76
3.73512e-66
-1.50902e-73
1.10889e-63
-4.82128e-71
1.98745e-61
-1.17317e-68
6.00988e-24
-6.57441e-24
5.08012e-23
-4.96566e-23
1.93717e-22
-1.6138e-22
-1.57884e-22
2.254e-92
-3.54461e-97
9.90013e-83
-3.39649e-87
4.79555e-75
-2.42034e-79
3.05494e-72
-1.12812e-76
9.16951e-70
-2.69097e-74
2.10886e-67
-1.60849e-71
1.12922e-22
-1.19497e-22
8.19731e-22
-7.56466e-22
2.72045e-21
-2.0621e-21
-1.99409e-21
3.01213e-95
1.03987e-98
2.11252e-85
-5.19257e-88
1.17525e-77
-3.34584e-80
4.81183e-75
-1.27284e-77
1.01562e-72
-2.92985e-75
5.44204e-70
-3.01768e-72
3.69913e-21
-3.81862e-21
2.16858e-20
-1.87432e-20
6.05644e-20
-4.09407e-20
-3.91358e-20
1.06223e-94
6.84889e-97
2.92501e-85
1.5298e-87
7.58753e-78
2.65304e-80
1.86313e-75
2.69585e-78
3.16445e-73
-2.38516e-75
2.56198e-70
-3.04032e-72
2.70419e-19
-2.74237e-19
1.146e-18
-9.02142e-19
2.54654e-18
-1.48146e-18
-1.25436e-18
7.36531e-93
3.91209e-95
3.72359e-83
1.63939e-85
5.09094e-76
1.68236e-78
8.09252e-74
1.64845e-76
6.51491e-72
6.44167e-75
1.48512e-69
3.43135e-74
7.73976e-17
-7.76719e-17
1.82963e-16
-1.46729e-16
2.98045e-16
-2.56396e-16
-2.70834e-16
-7.96138e-90
-4.33607e-92
-1.96522e-82
-8.26761e-85
4.08326e-76
1.15205e-78
4.43554e-76
5.37583e-76
8.58478e-76
6.47422e-75
1.87099e-13
-1.87099e-13
4.77267e-13
-4.45295e-13
8.04989e-13
-7.56729e-13
9.77261e-13
-9.84614e-13
-9.64344e-13
-1.30543e-87
-5.44674e-90
-1.49744e-79
-3.70887e-82
-1.20586e-72
-8.35916e-76
1.53141e-10
-1.53141e-10
6.39531e-10
-4.89548e-10
1.43889e-09
-8.0964e-10
2.21254e-09
-7.91737e-10
3.06097e-09
-8.67878e-10
3.62581e-09
-5.8489e-10
1.4231e-09
-1.20023e-86
-1.38349e-89
1.29291e-07
-1.29291e-07
4.90483e-07
-3.61192e-07
1.0435e-06
-5.53173e-07
1.79391e-06
-7.50891e-07
2.73267e-06
-9.39559e-07
3.70434e-06
-9.72445e-07
4.70949e-06
-1.006e-06
5.76109e-06
-1.05217e-06
-9.62889e-07
0.000135911
-1.03512e-06
0.000137071
-1.28939e-06
0.000138217
-1.50722e-06
0.000139265
-1.60084e-06
0.000140265
-1.7505e-06
0.00014122
-1.89529e-06
0.000142026
-1.77838e-06
0.000142725
-1.70486e-06
0.00014336
-1.68696e-06
-1.51577e-06
0.000332938
-3.59038e-06
0.000335171
-3.5232e-06
0.000337002
-3.33776e-06
0.000338327
-2.92567e-06
0.000339257
-2.68114e-06
0.000339833
-2.47077e-06
0.000340075
-2.02068e-06
0.000340068
-1.6978e-06
0.000339919
-1.53824e-06
-1.35186e-06
0.000720875
-8.21279e-06
0.000724913
-7.56132e-06
0.000728175
-6.59952e-06
0.000730461
-5.21201e-06
0.000731969
-4.18864e-06
0.000732748
-3.25055e-06
0.000732842
-2.11416e-06
0.000732353
-1.20863e-06
0.000731746
-9.31962e-07
-6.78447e-07
0.00159009
-9.49973e-06
0.00159094
-8.41497e-06
0.00159092
-6.58301e-06
0.00158986
-4.15017e-06
0.00158774
-2.06337e-06
0.00158443
5.09221e-08
0.00157991
2.41049e-06
0.00157413
4.57313e-06
0.00156865
4.54717e-06
3.28551e-06
0.00146103
-5.30377e-07
0.00145081
1.80394e-06
0.00143934
4.89327e-06
0.00142742
7.77162e-06
0.00141475
1.06058e-05
0.00140124
1.35547e-05
0.00138697
1.66821e-05
0.00137194
1.96021e-05
0.00135753
1.89624e-05
1.15612e-05
0.00145784
1.74356e-05
0.00143696
2.2679e-05
0.00141381
2.80413e-05
0.00139054
3.10423e-05
0.00136695
3.42039e-05
0.00134321
3.72912e-05
0.00131959
4.03011e-05
0.0012962
4.29943e-05
0.00127401
4.11468e-05
2.33535e-05
0.00137277
4.55107e-05
0.00134175
5.37007e-05
0.00130904
6.07459e-05
0.00127778
6.23047e-05
0.00124759
6.44008e-05
0.00121863
6.62512e-05
0.00119105
6.78722e-05
0.00116487
6.91805e-05
0.00113981
6.62078e-05
3.70837e-05
0.00119335
7.9297e-05
0.00115808
8.89752e-05
0.00112258
9.62443e-05
0.00108999
9.48909e-05
0.00105964
9.47578e-05
0.00103144
9.44513e-05
0.0010053
9.40073e-05
0.000980944
9.3539e-05
0.000956422
9.07293e-05
5.00868e-05
0.000928199
0.000112194
0.000894749
0.000122425
0.000861754
0.00012924
0.00083218
0.000124465
0.00080536
0.000121578
0.000781034
0.000118777
0.000758778
0.000116263
0.000739195
0.000113122
0.000715673
0.000114252
6.60387e-05
0.00061147
0.000581749
0.000552528
0.000526829
0.000504299
0.000484369
0.000466401
0.000451492
0.000429737
)
;

boundaryField
{
    walls
    {
        type            calculated;
        value           nonuniform List<scalar> 
20
(
2.29885e-58
1.23271e-52
5.79896e-48
1.72011e-45
2.0916e-43
1.45156e-41
1.64304e-26
1.66781e-25
8.92608e-25
9.97828e-25
0.000141836
0.000152146
0.000158461
0.000150164
0.000144108
0.000138707
0.000134231
0.000128032
0.000136007
8.03443e-05
)
;
    }
    topInlet
    {
        type            calculated;
        value           nonuniform 0();
    }
    bottomInlet
    {
        type            calculated;
        value           nonuniform 0();
    }
    outlet
    {
        type            calculated;
        value           nonuniform List<scalar> 
20
(
5.19275e-24
3.48131e-23
3.33416e-22
4.55666e-21
9.77061e-20
3.68858e-18
3.12022e-16
6.8207e-13
2.17708e-09
6.72542e-06
0.000143913
0.000339756
0.000731073
0.00156469
0.00134925
0.00126222
0.00112608
0.000943419
0.000699721
0.000415431
)
;
    }
    frontBack
    {
        type            empty;
        value           nonuniform 0();
    }
    procBoundary3to2
    {
        type            processor;
        value           nonuniform List<scalar> 
20
(
-3.3228e-64
-1.45343e-81
-3.98371e-95
-4.10932e-103
-4.6062e-106
-2.88106e-105
1.44457e-102
2.51343e-98
3.90129e-96
3.50363e-95
-0.00013489
-0.000330382
-0.000716253
-0.0015888
-0.00147
-0.0014758
-0.00140085
-0.00122714
-0.000961096
-0.000641112
)
;
    }
}


// ************************************************************************* //
