/*--------------------------------*- C++ -*----------------------------------*\
| =========                 |                                                 |
| \\      /  F ield         | OpenFOAM: The Open Source CFD Toolbox           |
|  \\    /   O peration     | Version:  4.x                                   |
|   \\  /    A nd           | Web:      www.OpenFOAM.org                      |
|    \\/     M anipulation  |                                                 |
\*---------------------------------------------------------------------------*/
FoamFile
{
    version     2.0;
    format      ascii;
    class       volScalarField;
    location    "0.35";
    object      nut;
}
// * * * * * * * * * * * * * * * * * * * * * * * * * * * * * * * * * * * * * //

dimensions      [0 2 -1 0 0 0 0];

internalField   nonuniform List<scalar> 
200
(
0.00134084
0.00130922
0.0012772
0.00124714
0.00121994
0.0011955
0.00117351
0.00115238
0.00113906
0.00110452
0.000841325
0.000844514
0.000848629
0.000853461
0.000857849
0.000861639
0.000864885
0.000868885
0.000867739
0.000894079
0.000584897
0.000622885
0.000663706
0.000704278
0.000743859
0.00078202
0.000818655
0.000854603
0.000887067
0.000945823
0.000313682
0.000355468
0.00040503
0.000458286
0.000514545
0.000572981
0.000632867
0.000693983
0.000755742
0.000833042
0.000151235
0.000169271
0.000194841
0.000226636
0.000264984
0.000310026
0.000361723
0.000419906
0.000484635
0.000561399
9.99256e-05
0.000101392
0.000106378
0.000115333
0.000128886
0.000147674
0.000172461
0.00020405
0.000243473
0.000292961
7.01966e-05
7.16352e-05
7.28962e-05
7.44795e-05
7.70597e-05
8.13839e-05
8.8196e-05
9.82949e-05
0.000112593
0.000132268
5.17422e-05
5.54732e-05
5.87028e-05
6.13804e-05
6.38641e-05
6.6608e-05
7.01781e-05
7.5225e-05
8.2506e-05
9.28936e-05
4.74884e-05
5.18132e-05
5.56252e-05
5.87551e-05
6.15012e-05
6.42575e-05
6.75269e-05
7.19172e-05
7.81506e-05
8.70594e-05
4.67665e-05
5.11838e-05
5.50885e-05
5.82939e-05
6.10907e-05
6.3865e-05
6.71108e-05
7.14309e-05
7.75444e-05
8.62803e-05
4.66949e-05
5.11117e-05
5.50165e-05
5.82231e-05
6.10228e-05
6.38023e-05
6.70566e-05
7.13901e-05
7.75246e-05
8.62915e-05
4.71811e-05
5.15054e-05
5.53197e-05
5.84561e-05
6.12158e-05
6.39958e-05
6.7301e-05
7.17472e-05
7.80675e-05
8.71039e-05
5.08958e-05
5.46299e-05
5.78742e-05
6.05813e-05
6.31167e-05
6.59402e-05
6.96197e-05
7.48267e-05
8.23474e-05
9.30805e-05
6.8325e-05
6.97611e-05
7.10751e-05
7.2773e-05
7.55305e-05
8.00642e-05
8.71839e-05
9.77177e-05
0.000112627
0.000133164
9.76677e-05
9.9214e-05
0.000104275
0.000113309
0.000126996
0.000146102
0.000171374
0.000203708
0.00024424
0.000295338
0.000148823
0.000166538
0.000191745
0.000223261
0.000261538
0.000306857
0.00035921
0.000418483
0.000484767
0.000563735
0.000308802
0.000349727
0.000398631
0.000451617
0.00050808
0.000567259
0.000628299
0.000690916
0.000754442
0.000834182
0.000577947
0.000615616
0.000656448
0.000697364
0.000737599
0.000776748
0.000814521
0.00085169
0.000885386
0.000946011
0.000840326
0.000843504
0.000847636
0.000852514
0.000856994
0.000861
0.00086446
0.00086864
0.000867719
0.000894493
0.00135076
0.00131781
0.00128433
0.00125285
0.00122432
0.00119858
0.00117546
0.00115339
0.00113939
0.0011036
)
;

boundaryField
{
    walls
    {
        type            nutkWallFunction;
        Cmu             0.09;
        kappa           0.41;
        E               9.8;
        value           uniform 0;
    }
    topInlet
    {
        type            calculated;
        value           nonuniform 0();
    }
    bottomInlet
    {
        type            calculated;
        value           nonuniform 0();
    }
    outlet
    {
        type            calculated;
        value           nonuniform List<scalar> 
20
(
0.00110452
0.000894079
0.000945823
0.000833042
0.000561399
0.000292961
0.000132268
9.28936e-05
8.70594e-05
8.62803e-05
8.62915e-05
8.71039e-05
9.30805e-05
0.000133164
0.000295338
0.000563735
0.000834182
0.000946011
0.000894493
0.0011036
)
;
    }
    frontBack
    {
        type            empty;
    }
    procBoundary3to2
    {
        type            processor;
        value           nonuniform List<scalar> 
20
(
0.00137214
0.000838361
0.000549741
0.000279235
0.00013932
0.00010074
6.82112e-05
4.75865e-05
4.28107e-05
4.20086e-05
4.19381e-05
4.25069e-05
4.6748e-05
6.63811e-05
9.83976e-05
0.000137137
0.000275261
0.000543388
0.000837418
0.00138321
)
;
    }
}


// ************************************************************************* //
