/*--------------------------------*- C++ -*----------------------------------*\
| =========                 |                                                 |
| \\      /  F ield         | OpenFOAM: The Open Source CFD Toolbox           |
|  \\    /   O peration     | Version:  4.x                                   |
|   \\  /    A nd           | Web:      www.OpenFOAM.org                      |
|    \\/     M anipulation  |                                                 |
\*---------------------------------------------------------------------------*/
FoamFile
{
    version     2.0;
    format      ascii;
    class       surfaceScalarField;
    location    "0.1";
    object      alphaPhi;
}
// * * * * * * * * * * * * * * * * * * * * * * * * * * * * * * * * * * * * * //

dimensions      [0 3 -1 0 0 0 0];

internalField   nonuniform List<scalar> 
360
(
0
0
0
0
0
0
0
0
1.91153e-236
1.70475e-238
3.84784e-222
1.77697e-224
3.63452e-212
1.19734e-215
8.26866e-178
-2.00361e-198
2.40149e-167
-3.39139e-188
-9.88675e-180
0
0
0
0
0
0
0
0
1.2793e-237
1.8558e-239
1.19772e-223
1.33226e-225
7.43303e-215
6.0891e-217
6.59175e-196
3.77984e-198
5.47669e-186
1.63823e-188
4.28959e-181
0
0
0
0
0
0
0
0
1.22652e-238
1.85206e-240
7.77259e-225
9.24579e-227
3.21544e-216
2.92557e-218
9.98282e-197
6.59903e-199
3.84854e-187
1.55105e-189
1.18885e-182
0
0
0
0
0
0
0
0
1.22457e-239
1.76122e-241
5.35102e-226
5.97325e-228
1.52194e-217
1.27897e-219
1.53122e-197
9.31065e-200
3.14119e-188
1.32016e-190
5.87312e-184
0
0
0
0
0
0
0
0
1.18837e-240
1.60215e-242
3.51322e-227
3.65583e-229
6.744e-219
5.26457e-221
2.30343e-198
1.31186e-200
2.79393e-189
1.2264e-191
4.45293e-185
0
0
0
0
0
0
0
0
1.10868e-241
1.40249e-243
2.19518e-228
2.18182e-230
2.82769e-220
2.13005e-222
3.57085e-199
1.97772e-201
2.80237e-190
1.39895e-192
6.77838e-186
0
0
0
0
0
0
0
0
1.06239e-242
1.55273e-244
1.43732e-229
1.94854e-231
1.2659e-221
1.55318e-223
1.4483e-199
1.56796e-201
9.20999e-191
1.01044e-192
7.24762e-186
0
0
0
0
0
0
0
0
4.50175e-242
4.10576e-243
1.72748e-227
1.5478e-228
6.38161e-217
5.50597e-218
1.38331e-181
1.1018e-182
6.33712e-171
4.25311e-172
4.89702e-165
0
0
0
0
0
0
0
0
1.1115e-216
5.32522e-217
3.10454e-200
1.44887e-200
6.74859e-189
3.07395e-189
3.99175e-153
1.73111e-153
2.73417e-141
9.58636e-142
1.10547e-135
0
0
0
0
5.54018e-214
2.26534e-196
2.42499e-184
1.15047e-147
4.49713e-132
7.04476e-05
-0.000158748
4.49239e-05
-0.000134881
3.40074e-05
-0.000103928
2.82084e-05
-8.50681e-05
2.46694e-05
-7.38596e-05
2.21414e-05
-6.6404e-05
2.00317e-05
-6.01041e-05
1.80295e-05
-5.3074e-05
1.60998e-05
-4.0766e-05
-2.3385e-05
0.000279033
-6.75482e-05
0.000223887
-7.97348e-05
0.000189918
-6.9959e-05
0.00016771
-6.28598e-05
0.000152412
-5.85611e-05
0.000140627
-5.46193e-05
0.000130474
-4.99517e-05
0.000121285
-4.38846e-05
0.000116087
-3.55678e-05
-4.51497e-05
0.000778393
-4.68838e-05
0.00074094
-4.22821e-05
0.000706506
-3.55252e-05
0.00067149
-2.78432e-05
0.000637392
-2.44637e-05
0.000605346
-2.25731e-05
0.000575652
-2.02575e-05
0.000549463
-1.76958e-05
0.000531816
-1.79207e-05
-3.50855e-05
0.00173007
-5.05502e-05
0.00172577
-3.79838e-05
0.00172187
-3.16277e-05
0.00171837
-2.43426e-05
0.00171258
-1.86743e-05
0.00170445
-1.44428e-05
0.00169488
-1.06808e-05
0.00168476
-7.57511e-06
0.00167363
-6.79811e-06
-1.1448e-05
0.00154247
-5.25271e-05
0.00154413
-3.9639e-05
0.00154475
-3.22541e-05
0.00154622
-2.5807e-05
0.00154755
-2.0011e-05
0.00154831
-1.5202e-05
0.00154877
-1.11367e-05
0.00154904
-7.8459e-06
0.00154808
-5.8406e-06
-5.5287e-06
0.001545
-5.3693e-05
0.00154658
-4.12139e-05
0.00154749
-3.31661e-05
0.00154877
-2.70889e-05
0.00155023
-2.1467e-05
0.00155145
-1.64274e-05
0.00155242
-1.20998e-05
0.00155302
-8.45044e-06
0.00155273
-5.5544e-06
-3.41631e-06
0.00154775
-5.46707e-05
0.00154885
-4.2307e-05
0.00154953
-3.3845e-05
0.00155043
-2.79925e-05
0.00155155
-2.25903e-05
0.0015527
-1.75725e-05
0.00155378
-1.3183e-05
0.00155456
-9.22799e-06
0.00155408
-5.07732e-06
-1.16507e-06
0.00155061
-5.59035e-05
0.00155057
-4.22663e-05
0.00154995
-3.32239e-05
0.00154903
-2.70751e-05
0.00154763
-2.11842e-05
0.00154596
-1.59108e-05
0.00154422
-1.14355e-05
0.00154245
-7.46249e-06
0.00154075
-3.37309e-06
3.47236e-07
0.00154854
-5.32483e-05
0.00154115
-3.48761e-05
0.0015335
-2.55715e-05
0.00152472
-1.82975e-05
0.00151424
-1.0706e-05
0.00150317
-4.84394e-06
0.00149106
6.81856e-07
0.0014779
5.68986e-06
0.00146428
1.02507e-05
1.49908e-05
0.00147754
0.00142081
0.00137308
0.00133048
0.00129292
0.00125935
0.00122984
0.00120424
0.00118257
)
;

boundaryField
{
    walls
    {
        type            calculated;
        value           nonuniform List<scalar> 
40
(
0
0
0
0
1.70864e-213
6.92978e-196
7.40171e-184
3.46081e-147
1.18401e-131
-4.11601e-112
0
0
0
0
3.80695e-238
8.43625e-224
8.59615e-214
2.07197e-179
6.25567e-169
1.94418e-160
0.000262546
0.000160404
0.000114844
9.08671e-05
7.73986e-05
6.8932e-05
6.22138e-05
5.50762e-05
4.26957e-05
-2.49046e-06
2.22545e-05
2.18579e-05
2.21561e-05
2.42984e-05
2.68575e-05
2.87223e-05
3.01924e-05
3.12943e-05
3.19253e-05
3.0602e-05
)
;
    }
    topInlet
    {
        type            calculated;
        value           nonuniform List<scalar> 10(-0.000174246 -0.000370233 -0.000799057 -0.0017264 -0.00154049 -0.00154384 -0.00154678 -0.00154938 -0.00155119 -0.00155304);
    }
    bottomInlet
    {
        type            calculated;
        value           uniform 0;
    }
    outlet
    {
        type            calculated;
        value           nonuniform 0();
    }
    frontBack
    {
        type            empty;
        value           nonuniform 0();
    }
    procBoundary0to1
    {
        type            processor;
        value           nonuniform List<scalar> 
20
(
7.7033e-159
1.02728e-177
8.98847e-180
2.15185e-181
1.08056e-182
8.60488e-184
3.41081e-184
5.67911e-164
6.42429e-135
9.87381e-111
4.19753e-05
0.000137852
0.000521752
0.00165
0.00154216
0.00155062
0.00155183
0.00153923
0.00144964
0.00116695
)
;
    }
}


// ************************************************************************* //
