/*--------------------------------*- C++ -*----------------------------------*\
| =========                 |                                                 |
| \\      /  F ield         | OpenFOAM: The Open Source CFD Toolbox           |
|  \\    /   O peration     | Version:  4.x                                   |
|   \\  /    A nd           | Web:      www.OpenFOAM.org                      |
|    \\/     M anipulation  |                                                 |
\*---------------------------------------------------------------------------*/
FoamFile
{
    version     2.0;
    format      ascii;
    class       volVectorField;
    location    "0.1";
    object      U;
}
// * * * * * * * * * * * * * * * * * * * * * * * * * * * * * * * * * * * * * //

dimensions      [0 1 -1 0 0 0 0];

internalField   nonuniform List<vector> 
200
(
(19.166 0.771064 1.84309e-24)
(18.5157 0.561383 2.48765e-24)
(17.8901 0.392834 1.9271e-24)
(17.3162 0.241046 -1.14073e-27)
(16.8081 0.0949634 3.0202e-26)
(16.357 -0.044846 -2.18971e-30)
(15.9536 -0.172651 0)
(15.6011 -0.282466 -9.08757e-28)
(15.2987 -0.374414 6.05216e-27)
(15.0929 -0.43815 1.46116e-24)
(19.748 0.960598 5.05665e-25)
(19.7186 0.866409 8.41393e-30)
(19.673 0.835482 1.42803e-26)
(19.5776 0.835933 8.00242e-26)
(19.4537 0.841936 5.84296e-25)
(19.3152 0.843478 5.42023e-25)
(19.1717 0.842684 -1.67734e-26)
(19.0145 0.838498 0)
(18.8457 0.832572 0)
(18.6771 0.81635 -6.10001e-25)
(19.7385 0.972078 0)
(19.7758 0.875396 -7.58405e-25)
(19.8324 0.806785 1.43263e-25)
(19.8406 0.745405 5.76224e-25)
(19.8231 0.673646 0)
(19.8006 0.598856 -7.63725e-25)
(19.7786 0.527273 7.7053e-25)
(19.757 0.462824 7.39471e-25)
(19.7352 0.40819 6.76732e-25)
(19.722 0.356722 5.06302e-27)
(19.6866 0.956488 7.38751e-25)
(19.7343 0.858701 -8.70651e-25)
(19.8159 0.795067 4.0236e-25)
(19.8464 0.748303 -6.88548e-26)
(19.8539 0.708309 3.60525e-25)
(19.8632 0.678768 -2.04532e-25)
(19.8771 0.661359 2.27056e-25)
(19.8906 0.653592 1.50095e-26)
(19.8961 0.649243 -3.29126e-27)
(19.8832 0.639138 1.94692e-27)
(19.6304 0.94542 3.17926e-24)
(19.6885 0.847997 -1.62147e-24)
(19.7875 0.788343 7.58029e-25)
(19.8254 0.741763 -4.10621e-25)
(19.8362 0.699163 1.86928e-30)
(19.8481 0.660184 -1.3091e-26)
(19.8628 0.622826 3.40887e-25)
(19.8752 0.585788 1.45645e-26)
(19.8798 0.551117 -3.48122e-25)
(19.8651 0.521842 0)
(19.5707 0.929244 1.85651e-24)
(19.6401 0.837877 1.40389e-25)
(19.7545 0.773309 8.61355e-25)
(19.7959 0.716488 -4.29124e-25)
(19.8055 0.671869 -3.78271e-25)
(19.8134 0.638778 0)
(19.8219 0.612438 0)
(19.8282 0.592699 -1.68185e-25)
(19.8268 0.587239 -3.98773e-27)
(19.7856 0.606285 2.09471e-25)
(19.4947 0.878372 -6.83335e-25)
(19.5519 0.860625 1.65037e-29)
(19.6291 0.80695 9.55397e-25)
(19.6162 0.732648 -1.20439e-24)
(19.5576 0.671461 6.06304e-26)
(19.4782 0.622325 4.60318e-25)
(19.3823 0.579947 3.79102e-25)
(19.2746 0.546257 -3.3363e-25)
(19.1587 0.539148 3.54519e-26)
(18.9594 0.621272 1.43003e-24)
(19.1359 0.678392 0)
(18.5855 0.704707 -1.19099e-29)
(17.8367 0.68644 1.03538e-24)
(16.9876 0.667222 -1.57276e-24)
(16.1419 0.660172 1.60264e-26)
(15.3421 0.646533 4.54201e-25)
(14.597 0.618358 9.23485e-25)
(13.9132 0.577455 -1.14545e-26)
(13.3371 0.543337 0)
(12.8621 0.686522 1.21157e-24)
(16.0926 1.69939 4.29093e-24)
(13.0204 1.56681 -9.4237e-24)
(10.8364 1.32667 3.99647e-24)
(9.41945 1.14801 6.30802e-27)
(8.48343 1.03071 3.76783e-27)
(7.80199 0.94436 -1.16599e-27)
(7.2419 0.866481 -3.04456e-24)
(6.74035 0.779642 0)
(6.29767 0.644968 -1.46766e-27)
(6.02293 0.483211 -5.72185e-29)
(10.0313 2.34214 6.00362e-27)
(6.0084 1.68558 -3.95681e-23)
(4.34711 1.20504 -7.45955e-28)
(3.50243 0.947928 -1.15952e-23)
(3.01435 0.804174 -1.71139e-28)
(2.69011 0.713106 -2.73429e-28)
(2.4368 0.640988 -1.4332e-28)
(2.21091 0.56621 -7.14597e-24)
(1.9863 0.444877 1.7247e-28)
(1.73174 0.175398 -4.26226e-29)
(9.91845 -2.34857 6.3898e-23)
(5.91163 -1.68264 1.87175e-27)
(4.27118 -1.19889 2.89749e-23)
(3.44009 -0.941715 -1.16027e-23)
(2.96045 -0.798769 1.71475e-28)
(2.6408 -0.708062 2.72183e-28)
(2.38985 -0.635572 1.41182e-28)
(2.16542 -0.559635 7.11186e-24)
(1.94321 -0.43654 -1.76856e-28)
(1.69657 -0.167603 4.25095e-29)
(16.0123 -1.71402 4.4935e-24)
(12.9156 -1.57732 -9.76901e-24)
(10.7304 -1.33079 4.10148e-24)
(9.31885 -1.14874 -1.30309e-26)
(8.38729 -1.03018 -3.82357e-27)
(7.70741 -0.942877 1.19142e-27)
(7.14679 -0.863645 -3.09267e-24)
(6.64408 -0.774743 0)
(6.20175 -0.637117 1.49711e-27)
(5.93184 -0.474555 5.53838e-29)
(19.1087 -0.669719 0)
(18.5417 -0.700286 -1.23506e-29)
(17.7735 -0.683911 1.03678e-24)
(16.9049 -0.665183 -1.57899e-24)
(16.0422 -0.658035 -1.6534e-26)
(15.2286 -0.643747 4.29639e-25)
(14.4725 -0.614596 9.50794e-25)
(13.7803 -0.572655 1.18949e-26)
(13.1998 -0.538045 0)
(12.7268 -0.684172 1.24044e-24)
(19.4817 -0.872942 1.5193e-24)
(19.5413 -0.854262 3.5735e-25)
(19.6201 -0.799136 9.86155e-25)
(19.6055 -0.723276 -1.47323e-24)
(19.5433 -0.661071 -6.20736e-26)
(19.4596 -0.611469 4.67795e-25)
(19.359 -0.568977 4.4059e-25)
(19.2464 -0.535527 -3.02022e-25)
(19.1253 -0.529426 0)
(18.9194 -0.614224 1.47028e-24)
(19.56 -0.925774 1.912e-24)
(19.632 -0.832514 -1.45805e-25)
(19.7498 -0.767267 3.76261e-28)
(19.7922 -0.709933 -3.3606e-28)
(19.8018 -0.665043 -3.15337e-26)
(19.8096 -0.631876 3.00622e-25)
(19.8181 -0.605533 0)
(19.8245 -0.586027 -1.63916e-25)
(19.8229 -0.581498 4.21726e-27)
(19.7803 -0.602189 2.14784e-25)
(19.6212 -0.942796 6.50339e-26)
(19.6814 -0.843197 -1.77414e-24)
(19.7836 -0.782516 1.903e-29)
(19.8226 -0.735257 -7.22994e-30)
(19.8336 -0.692043 3.75571e-25)
(19.8458 -0.652225 3.6587e-25)
(19.8609 -0.613601 3.71555e-25)
(19.8735 -0.574907 0)
(19.8781 -0.538879 -3.65312e-25)
(19.8636 -0.510033 0)
(19.6788 -0.954447 7.55196e-25)
(19.7282 -0.854386 -9.89447e-25)
(19.8124 -0.789416 4.09155e-25)
(19.8438 -0.742198 6.10033e-30)
(19.8516 -0.702678 3.12396e-25)
(19.8617 -0.674067 -2.48648e-25)
(19.8767 -0.657724 1.78059e-25)
(19.891 -0.650385 -1.51087e-26)
(19.896 -0.646396 3.19283e-27)
(19.8817 -0.635467 -2.34724e-27)
(19.7318 -0.970788 0)
(19.7707 -0.871752 -9.57944e-25)
(19.8291 -0.800557 -1.47262e-25)
(19.8372 -0.736341 6.0652e-25)
(19.8189 -0.662547 0)
(19.7961 -0.586059 -7.8646e-25)
(19.7745 -0.513557 7.87258e-25)
(19.7533 -0.449746 7.38124e-25)
(19.732 -0.395968 6.65901e-25)
(19.7189 -0.343654 -5.29221e-27)
(19.7415 -0.959551 5.06535e-25)
(19.7134 -0.865193 8.93772e-30)
(19.6691 -0.835906 -1.56453e-25)
(19.5727 -0.838373 2.28976e-25)
(19.4468 -0.844716 4.19707e-25)
(19.3069 -0.845989 5.25698e-25)
(19.1605 -0.844484 1.65509e-26)
(19 -0.84013 0)
(18.8287 -0.834001 0)
(18.6585 -0.818656 -6.50034e-25)
(19.1511 -0.764878 3.38778e-24)
(18.4951 -0.546306 2.56124e-24)
(17.8651 -0.372246 2.03407e-24)
(17.2888 -0.216769 -1.82671e-24)
(16.7783 -0.0674724 -3.51034e-24)
(16.3251 0.074787 -3.43655e-24)
(15.9215 0.203827 0)
(15.5704 0.314523 8.61948e-28)
(15.2695 0.406365 -6.06891e-27)
(15.0647 0.46911 2.94674e-24)
)
;

boundaryField
{
    walls
    {
        type            noSlip;
    }
    topInlet
    {
        type            fixedValue;
        value           uniform (19.9726 -1.0467 0);
    }
    bottomInlet
    {
        type            fixedValue;
        value           uniform (19.9726 1.0467 0);
    }
    outlet
    {
        type            zeroGradient;
    }
    frontBack
    {
        type            empty;
    }
    procBoundary0to1
    {
        type            processor;
        value           nonuniform List<vector> 
20
(
(14.7835 -0.418725 0)
(18.4887 0.737195 0)
(19.6776 0.316664 0)
(19.8597 0.599341 0)
(19.8426 0.487956 0)
(19.7333 0.573866 0)
(18.7938 0.629584 0)
(13.0214 0.763608 0)
(8.29028 0.548008 0)
(6.89163 0.191285 0)
(6.87767 -0.180559 0)
(8.22321 -0.537576 0)
(12.8982 -0.761433 0)
(18.7491 -0.62352 0)
(19.7265 -0.569376 0)
(19.841 -0.476725 0)
(19.8575 -0.595119 0)
(19.6738 -0.30247 0)
(18.4701 -0.740669 0)
(14.754 0.449913 0)
)
;
    }
}


// ************************************************************************* //
