/*--------------------------------*- C++ -*----------------------------------*\
| =========                 |                                                 |
| \\      /  F ield         | OpenFOAM: The Open Source CFD Toolbox           |
|  \\    /   O peration     | Version:  4.x                                   |
|   \\  /    A nd           | Web:      www.OpenFOAM.org                      |
|    \\/     M anipulation  |                                                 |
\*---------------------------------------------------------------------------*/
FoamFile
{
    version     2.0;
    format      ascii;
    class       volScalarField;
    location    "0.25";
    object      p;
}
// * * * * * * * * * * * * * * * * * * * * * * * * * * * * * * * * * * * * * //

dimensions      [1 -1 -2 0 0 0 0];

internalField   nonuniform List<scalar> 
200
(
3560.61
3411.4
3423.5
3704.33
4064.45
4308.54
4494.24
4627.68
4696.48
4492.84
4286.64
4077.88
2526.96
1607.39
1056.24
721.286
380.595
73.7416
-103.505
-186.235
4975.29
5206.12
3393.95
2611.98
2597.11
2745.41
2826.2
2845.31
2784.36
2682.76
5974.73
6447.45
4240.6
3189.64
2994.93
2838.07
2512.92
2110.53
1744.14
1626.41
7082.41
7661.36
4996.34
3741.09
3509.89
3343.63
3054.1
2758.47
2550.25
2552.03
8293.27
8894.1
5736.39
4303.43
3993.46
3758.41
3420.59
3050.48
2672.35
2470.59
9815.28
10037.8
6721.14
5227.17
4649.2
4157.84
3666.62
3172.46
2559.5
1896.49
12060.7
9468.2
7008.24
5988.5
5374.07
4857.25
4358.23
3784.36
2801.24
664.603
17341.7
10859.3
8001.66
6471.1
5563.88
4974.05
4498.65
3986.46
3025.78
-24.164
11854.4
7077.7
5010.8
3937.16
3335.91
2959.91
2665.85
2360
1838.25
-73.4349
11979.5
7107.54
5011.54
3930.17
3329.33
2954.01
2658.16
2346.73
1813.95
-110.241
17623
10966.4
8039
6484.94
5572.21
4978.68
4496.16
3970.68
2987.17
-86.6899
12230.7
9567.8
7044.64
5997.48
5372.46
4846.72
4337.34
3748.48
2742.11
584.034
9879.54
10075.1
6679.22
5156.78
4572.21
4077.93
3583.08
3082.17
2458.91
1787.86
8257.7
8855.39
5633.66
4175.46
3863.55
3629.2
3287.45
2908.17
2516.22
2304.99
6964.07
7545.89
4827.21
3547.84
3314.43
3148.31
2856.22
2559.13
2355.77
2361.35
5779.04
6254.92
4003.34
2933.17
2736.03
2571.04
2227.79
1803.08
1426.11
1342.92
4706.92
4934.47
3084.27
2299.22
2307.17
2467.83
2549.4
2548.62
2490.09
2362.88
3957.17
3725.56
2111.2
1158.07
624.468
288.125
-53.365
-341.801
-523.854
-619.986
3180.67
3056.39
3071.38
3360.98
3707.62
3950.04
4134.51
4270.82
4341.3
4146.15
)
;

boundaryField
{
    walls
    {
        type            calculated;
        value           nonuniform List<scalar> 
40
(
12.2954
11.0012
9.7069
8.41265
7.1184
5.82414
4.52989
3.23563
1.94138
0.647127
259.427
258.141
256.855
255.57
254.284
252.998
251.712
250.426
249.141
247.855
-12.1734
-10.892
-9.6106
-8.32919
-7.04778
-5.76636
-4.48495
-3.20353
-1.92212
-0.640707
-256.853
-255.58
-254.307
-253.034
-251.761
-250.488
-249.215
-247.942
-246.669
-245.396
)
;
    }
    topInlet
    {
        type            calculated;
        value           nonuniform List<scalar> 10(-14.5328 -19.954 -31.6337 -56.7969 -89.2753 -119.86 -150.444 -181.029 -211.613 -242.198);
    }
    bottomInlet
    {
        type            calculated;
        value           nonuniform List<scalar> 10(244.624 213.733 182.843 151.952 121.061 90.1698 57.366 31.9507 20.1539 14.6784);
    }
    outlet
    {
        type            calculated;
        value           nonuniform 0();
    }
    frontBack
    {
        type            empty;
    }
    procBoundary0to1
    {
        type            processor;
        value           nonuniform List<scalar> 
20
(
2241.04
-331.062
2199.03
1965.47
3001.14
3396.63
3994.87
3197.02
2326.95
2078.17
2067.29
2294.03
3136.1
3907.43
3238.45
2796.47
1702.24
1882.93
-773.136
1935.06
)
;
    }
}


// ************************************************************************* //
