/*--------------------------------*- C++ -*----------------------------------*\
| =========                 |                                                 |
| \\      /  F ield         | OpenFOAM: The Open Source CFD Toolbox           |
|  \\    /   O peration     | Version:  4.x                                   |
|   \\  /    A nd           | Web:      www.OpenFOAM.org                      |
|    \\/     M anipulation  |                                                 |
\*---------------------------------------------------------------------------*/
FoamFile
{
    version     2.0;
    format      ascii;
    class       surfaceScalarField;
    location    "0.25";
    object      alphaPhi;
}
// * * * * * * * * * * * * * * * * * * * * * * * * * * * * * * * * * * * * * //

dimensions      [0 3 -1 0 0 0 0];

internalField   nonuniform List<scalar> 
370
(
1.17605e-127
-1.95222e-163
1.44899e-114
-1.2345e-146
8.38851e-103
-1.67987e-131
3.05765e-92
-6.70712e-118
8.95559e-83
-1.06063e-105
2.5937e-74
-8.863e-95
9.0795e-67
-5.14593e-85
4.51512e-60
-2.58919e-76
3.79087e-54
-1.42592e-68
-1.04478e-61
6.80403e-162
-9.21594e-185
3.60337e-145
-1.54607e-166
4.18481e-130
-4.78617e-150
1.44205e-116
-3.84682e-135
1.98156e-104
-1.40173e-121
1.44431e-93
-2.76051e-109
7.34139e-84
-3.6212e-98
3.2364e-75
-3.70788e-88
1.56327e-67
-3.61297e-79
-3.96321e-71
1.44672e-182
5.19702e-185
1.49568e-164
1.80086e-167
3.33882e-148
-1.13057e-158
2.06816e-133
-2.93843e-143
6.04079e-120
-2.49032e-129
9.78303e-108
-1.21316e-116
1.0723e-96
-3.51508e-105
9.24444e-87
-9.09034e-95
7.63088e-78
-2.52077e-85
-8.61556e-77
1.00481e-183
6.38896e-186
3.20889e-166
1.60188e-168
9.91313e-156
3.73278e-158
8.26101e-141
2.13323e-143
4.03387e-127
5.63333e-130
1.32947e-114
1.08456e-118
2.84128e-103
-3.5084e-108
5.5962e-93
-1.72313e-97
1.21177e-83
-6.60593e-88
-2.98809e-79
1.02029e-184
7.65586e-187
2.30575e-167
1.52066e-169
2.30743e-156
1.36762e-158
1.19259e-141
6.46485e-144
2.98002e-128
1.49536e-130
1.49316e-116
6.91895e-119
2.58729e-105
1.10497e-107
5.48881e-95
2.06239e-97
1.2385e-85
3.74767e-88
6.9408e-80
1.465e-185
1.45341e-187
2.59337e-168
2.4421e-170
-3.10137e-155
-2.82777e-157
-2.50183e-140
-2.23438e-142
-4.9544e-127
-4.36062e-129
-4.25584e-115
-3.69129e-117
-1.22039e-104
-1.04284e-106
2.35399e-94
1.95833e-96
6.23634e-85
4.96295e-87
1.09362e-78
-1.13392e-178
-1.36209e-180
-1.57345e-161
-1.77196e-163
-4.64257e-146
-4.92477e-148
-3.97414e-132
-3.97011e-134
-9.90861e-120
-9.29054e-122
-1.3746e-108
-1.20254e-110
-1.47493e-98
-1.19978e-100
-1.11936e-89
-8.40363e-92
-8.50158e-82
-5.82862e-84
-3.86863e-77
-2.85186e-160
-4.43705e-162
-1.2714e-146
-1.80943e-148
-5.19004e-134
-6.82891e-136
-2.10383e-122
-2.56593e-124
-7.38936e-112
-8.32155e-114
-3.46838e-102
-3.57511e-104
-2.70828e-93
-2.54557e-95
-2.68655e-85
-2.28395e-87
-4.69578e-78
-3.56674e-80
-1.19496e-73
-1.14941e-153
-1.59678e-155
-2.19341e-141
-2.82978e-143
-8.20444e-130
-9.99658e-132
-5.67285e-119
-6.5356e-121
-5.49689e-109
-5.91556e-111
-1.0302e-99
-1.01336e-101
-4.42713e-91
-3.94607e-93
-2.72062e-83
-2.1642e-85
-3.85626e-76
-2.67833e-78
-1.00885e-71
-1.36429e-151
-1.08506e-153
-1.12716e-139
-9.23387e-142
-2.1768e-128
-1.87568e-130
-9.24893e-118
-8.21279e-120
-6.3183e-108
-5.51252e-110
-9.50818e-99
-7.64642e-101
-3.58682e-90
-2.5946e-92
-1.96028e-82
-1.22752e-84
-2.63122e-75
-1.34883e-77
-4.2791e-71
0.000126406
-1.92723e-06
0.000128005
-1.59878e-06
0.000129291
-1.28636e-06
0.000130316
-1.02424e-06
0.00013116
-8.44259e-07
0.000131921
-7.60881e-07
0.000132634
-7.12669e-07
0.000133334
-7.00481e-07
0.000134055
-7.20677e-07
-8.35431e-07
0.000293177
-8.09099e-06
0.000298806
-7.22753e-06
0.000303974
-6.45532e-06
0.000308735
-5.78502e-06
0.000313128
-5.23728e-06
0.000317185
-4.81803e-06
0.00032093
-4.45756e-06
0.000324376
-4.14582e-06
0.000327527
-3.87188e-06
-3.69094e-06
0.000654127
-1.73004e-05
0.000662821
-1.59224e-05
0.00067103
-1.4664e-05
0.000678776
-1.35307e-05
0.000686084
-1.25455e-05
0.000692972
-1.17062e-05
0.000699449
-1.09346e-05
0.000705504
-1.02002e-05
0.000711116
-9.48468e-06
-8.82706e-06
0.00159627
-1.32172e-05
0.00159266
-1.23116e-05
0.00158967
-1.16744e-05
0.00158741
-1.12709e-05
0.00158595
-1.10917e-05
0.00158532
-1.10727e-05
0.00158545
-1.10675e-05
0.00158621
-1.09606e-05
0.00158742
-1.06868e-05
-1.02092e-05
0.00152501
-9.50769e-06
0.00152066
-7.96049e-06
0.00151576
-6.77527e-06
0.0015104
-5.90701e-06
0.00150464
-5.3401e-06
0.00149855
-4.9835e-06
0.00149215
-4.65887e-06
0.00148534
-4.15565e-06
0.00147802
-3.36776e-06
-2.18916e-06
0.00154696
-7.61892e-06
0.00154431
-5.31481e-06
0.00154076
-3.2217e-06
0.00153617
-1.3195e-06
0.00153039
4.42818e-07
0.00152322
2.18327e-06
0.00151444
4.12288e-06
0.0015038
6.47695e-06
0.00149104
9.39962e-06
1.30448e-05
0.00153139
-2.98847e-06
0.00152537
7.04642e-07
0.00151778
4.37639e-06
0.00150832
8.13476e-06
0.00149681
1.19552e-05
0.00148303
1.5961e-05
0.00146677
2.03882e-05
0.00144775
2.54916e-05
0.00142581
3.1338e-05
3.80135e-05
0.00144686
1.15893e-05
0.00143029
1.72761e-05
0.00141182
2.28442e-05
0.00139127
2.86901e-05
0.0013688
3.44231e-05
0.00134434
4.04232e-05
0.00131789
4.68407e-05
0.0012895
5.38763e-05
0.00125923
6.16113e-05
7.01014e-05
0.00122132
3.71357e-05
0.00119537
4.32287e-05
0.00116886
4.93464e-05
0.00114186
5.56924e-05
0.00111403
6.22516e-05
0.00108529
6.91626e-05
0.00105559
7.65466e-05
0.00102493
8.45385e-05
0.000993385
9.31519e-05
0.00010239
0.000878082
0.000856311
0.000833394
0.000809198
0.000783645
0.000756802
0.000728851
0.000700064
0.000670726
)
;

boundaryField
{
    walls
    {
        type            calculated;
        value           nonuniform List<scalar> 
20
(
7.50861e-129
1.06274e-115
7.03385e-104
2.92074e-93
9.71749e-84
3.19088e-75
1.26372e-67
7.10217e-61
6.73172e-55
1.26043e-49
5.80695e-05
6.49989e-05
7.22636e-05
7.98891e-05
8.78042e-05
9.60057e-05
0.000104497
0.000113325
0.00012249
0.000132004
)
;
    }
    topInlet
    {
        type            calculated;
        value           nonuniform 0();
    }
    bottomInlet
    {
        type            calculated;
        value           nonuniform 0();
    }
    outlet
    {
        type            calculated;
        value           nonuniform 0();
    }
    frontBack
    {
        type            empty;
        value           nonuniform 0();
    }
    procBoundary2to1
    {
        type            processor;
        value           nonuniform List<scalar> 
20
(
-3.18165e-142
-2.0382e-180
-4.09482e-201
-4.43268e-202
-5.2803e-203
-7.78694e-204
2.30834e-197
6.76675e-175
1.18632e-166
4.03767e-164
-0.000124475
-0.000287013
-0.000644917
-0.00160035
-0.00152872
-0.00154884
-0.00153602
-0.00146144
-0.00124686
-0.000899016
)
;
    }
    procBoundary2to3
    {
        type            processor;
        value           nonuniform List<scalar> 
20
(
6.29036e-49
1.00495e-60
7.11151e-70
3.28214e-75
3.6356e-77
1.49112e-76
-6.31879e-75
-1.81733e-71
-1.77701e-69
-1.25762e-68
0.00013489
0.000330382
0.000716253
0.0015888
0.00147
0.0014758
0.00140085
0.00122714
0.000961096
0.000641112
)
;
    }
}


// ************************************************************************* //
