/*--------------------------------*- C++ -*----------------------------------*\
| =========                 |                                                 |
| \\      /  F ield         | OpenFOAM: The Open Source CFD Toolbox           |
|  \\    /   O peration     | Version:  4.x                                   |
|   \\  /    A nd           | Web:      www.OpenFOAM.org                      |
|    \\/     M anipulation  |                                                 |
\*---------------------------------------------------------------------------*/
FoamFile
{
    version     2.0;
    format      ascii;
    class       volScalarField;
    location    "0.25";
    object      k;
}
// * * * * * * * * * * * * * * * * * * * * * * * * * * * * * * * * * * * * * //

dimensions      [0 2 -2 0 0 0 0];

internalField   nonuniform List<scalar> 
200
(
21.0669
20.4564
19.8592
19.2575
18.6405
18.0035
17.346
16.671
15.984
15.2922
5.90289
5.84034
5.76893
5.69044
5.60606
5.51679
5.42355
5.32665
5.2266
5.12348
1.50747
1.55435
1.60657
1.66218
1.72094
1.78288
1.84849
1.9181
1.99185
2.06933
0.448404
0.452861
0.461601
0.47598
0.496256
0.522897
0.556372
0.597729
0.648337
0.709705
0.258315
0.247576
0.237542
0.228789
0.22187
0.217326
0.216028
0.218658
0.226078
0.239443
0.188667
0.179249
0.170025
0.16109
0.152537
0.144471
0.13705
0.130485
0.125085
0.121306
0.0834202
0.0837217
0.0840206
0.0841307
0.0838801
0.0831279
0.0817859
0.0798299
0.0773174
0.0744004
0.0511868
0.049367
0.048563
0.0484457
0.048748
0.0492457
0.0497531
0.0501167
0.0502223
0.0500028
0.041635
0.0396441
0.038848
0.0389063
0.0395469
0.0405365
0.0416693
0.0427619
0.0436592
0.0442456
0.039959
0.0379696
0.0371926
0.0372902
0.0379928
0.0390681
0.040308
0.0415243
0.0425558
0.0432796
0.0398665
0.0378744
0.0370942
0.037189
0.0378903
0.0389667
0.0402098
0.0414312
0.0424695
0.0432015
0.0412317
0.0392283
0.0384189
0.0384662
0.0391021
0.040097
0.0412443
0.0423596
0.0432863
0.0439088
0.0501555
0.0482835
0.047433
0.0472799
0.0475654
0.0480726
0.0486143
0.0490345
0.0492153
0.0490892
0.0817145
0.081953
0.0821868
0.0822363
0.0819397
0.0811661
0.0798308
0.0779132
0.0754734
0.07267
0.186273
0.176941
0.167821
0.158999
0.150571
0.142652
0.135383
0.128962
0.123694
0.120044
0.256578
0.245814
0.235838
0.227196
0.220471
0.216346
0.215352
0.21814
0.22556
0.238763
0.448832
0.453713
0.463642
0.47874
0.499223
0.525416
0.558115
0.598398
0.647642
0.707468
1.52645
1.57372
1.62423
1.67745
1.73338
1.7924
1.85509
1.92189
1.99305
2.06841
5.98676
5.91807
5.84141
5.75814
5.67001
5.57775
5.48169
5.38192
5.27862
5.17193
21.4578
20.8412
20.2361
19.625
18.9969
18.3454
17.6693
16.972
16.2597
15.5399
)
;

boundaryField
{
    walls
    {
        type            kqRWallFunction;
        value           nonuniform List<scalar> 
20
(
21.0669
20.4564
19.8592
19.2575
18.6405
18.0035
17.346
16.671
15.984
15.2922
21.4578
20.8412
20.2361
19.625
18.9969
18.3454
17.6693
16.972
16.2597
15.5399
)
;
    }
    topInlet
    {
        type            fixedValue;
        value           nonuniform 0();
    }
    bottomInlet
    {
        type            fixedValue;
        value           nonuniform 0();
    }
    outlet
    {
        type            zeroGradient;
    }
    frontBack
    {
        type            empty;
    }
    procBoundary2to1
    {
        type            processor;
        value           nonuniform List<scalar> 
20
(
21.714
5.95323
1.46858
0.446517
0.269227
0.198176
0.0832957
0.0544479
0.0452868
0.0436274
0.0435371
0.0448945
0.053476
0.0816518
0.195721
0.267558
0.446846
1.48546
6.04406
22.1083
)
;
    }
    procBoundary2to3
    {
        type            processor;
        value           nonuniform List<scalar> 
20
(
14.6024
5.01758
2.14978
0.783458
0.260332
0.119831
0.0713495
0.0494587
0.0444647
0.0436307
0.0435624
0.04417
0.0486552
0.0697785
0.118707
0.259343
0.779681
2.14742
5.06206
14.8192
)
;
    }
}


// ************************************************************************* //
