/*--------------------------------*- C++ -*----------------------------------*\
| =========                 |                                                 |
| \\      /  F ield         | OpenFOAM: The Open Source CFD Toolbox           |
|  \\    /   O peration     | Version:  4.x                                   |
|   \\  /    A nd           | Web:      www.OpenFOAM.org                      |
|    \\/     M anipulation  |                                                 |
\*---------------------------------------------------------------------------*/
FoamFile
{
    version     2.0;
    format      ascii;
    class       volVectorField;
    location    "0.25";
    object      U;
}
// * * * * * * * * * * * * * * * * * * * * * * * * * * * * * * * * * * * * * //

dimensions      [0 1 -1 0 0 0 0];

internalField   nonuniform List<vector> 
200
(
(11.3712 -0.797942 0)
(11.0982 -0.802184 0)
(10.8119 -0.799745 0)
(10.5102 -0.793275 0)
(10.1922 -0.784021 0)
(9.85907 -0.771709 0)
(9.51183 -0.756749 0)
(9.1536 -0.739933 0)
(8.78762 -0.721183 0)
(8.41802 -0.701435 0)
(15.8077 0.255423 0)
(15.4746 0.240349 0)
(15.136 0.22735 0)
(14.7909 0.216763 0)
(14.4382 0.207808 0)
(14.0762 0.198356 0)
(13.7035 0.189272 0)
(13.3201 0.179766 0)
(12.9265 0.169679 0)
(12.5242 0.159636 0)
(18.6247 -0.188467 0)
(18.4259 -0.204807 0)
(18.2005 -0.216265 0)
(17.9498 -0.222741 0)
(17.6736 -0.22478 0)
(17.3723 -0.224576 0)
(17.0463 -0.224387 0)
(16.6961 -0.223197 0)
(16.3225 -0.220712 0)
(15.9269 -0.218314 0)
(19.6363 0.154108 0)
(19.5694 0.141832 0)
(19.4844 0.13149 0)
(19.3775 0.121686 0)
(19.2457 0.110971 0)
(19.0856 0.0995066 0)
(18.8948 0.0855662 0)
(18.6709 0.0706293 0)
(18.411 0.0558128 0)
(18.1132 0.0428947 0)
(19.8208 -0.0228276 0)
(19.792 -0.0402293 0)
(19.7538 -0.0516022 0)
(19.7038 -0.057991 0)
(19.6398 -0.0611258 0)
(19.5598 -0.0620485 0)
(19.4608 -0.0604588 0)
(19.34 -0.0575463 0)
(19.1938 -0.0543607 0)
(19.0183 -0.0499871 0)
(19.5667 0.0732033 0)
(19.5168 0.0724335 0)
(19.4596 0.0726428 0)
(19.3959 0.0721245 0)
(19.3267 0.070557 0)
(19.2526 0.0679172 0)
(19.174 0.0639948 0)
(19.0907 0.0588807 0)
(19.0015 0.0528312 0)
(18.9043 0.0448457 0)
(18.2625 0.0729762 0)
(18.2175 0.0563804 0)
(18.1787 0.0418589 0)
(18.1475 0.0297633 0)
(18.1245 0.0201429 0)
(18.1103 0.0126566 0)
(18.1047 0.00726158 0)
(18.1069 0.00339582 0)
(18.1151 0.000687204 0)
(18.1269 -0.000789782 0)
(15.9955 0.0673765 0)
(16.2101 0.0563023 0)
(16.4132 0.0477383 0)
(16.6051 0.0408077 0)
(16.7861 0.034934 0)
(16.9565 0.0298025 0)
(17.1169 0.0253461 0)
(17.2673 0.0213924 0)
(17.4074 0.0178644 0)
(17.5366 0.0145346 0)
(15.3709 0.0286871 0)
(15.6787 0.0239678 0)
(15.9611 0.0202688 0)
(16.221 0.0171663 0)
(16.4607 0.014433 0)
(16.6819 0.0119722 0)
(16.8861 0.0098677 0)
(17.0744 0.00804281 0)
(17.2473 0.00645196 0)
(17.4047 0.00496271 0)
(15.2674 0.0100772 0)
(15.5912 0.00874888 0)
(15.887 0.00773052 0)
(16.1582 0.00680036 0)
(16.4076 0.00584982 0)
(16.6371 0.00486122 0)
(16.8485 0.00398162 0)
(17.043 0.00318776 0)
(17.2212 0.00247223 0)
(17.3831 0.00173518 0)
(15.2634 -0.00169152 0)
(15.5876 -0.000844853 0)
(15.8836 -0.000138022 0)
(16.1552 0.000331269 0)
(16.4048 0.000525738 0)
(16.6346 0.000477174 0)
(16.8463 0.000373661 0)
(17.0411 0.00022667 0)
(17.2195 5.517e-05 0)
(17.3817 -0.000221651 0)
(15.3529 -0.0202598 0)
(15.6624 -0.0160374 0)
(15.9463 -0.0126538 0)
(16.2076 -0.0100066 0)
(16.4485 -0.0080196 0)
(16.671 -0.00658607 0)
(16.8765 -0.00545772 0)
(17.066 -0.00457325 0)
(17.2399 -0.00387489 0)
(17.3983 -0.00341497 0)
(15.9482 -0.0597451 0)
(16.1669 -0.049261 0)
(16.3736 -0.0411112 0)
(16.5688 -0.0346737 0)
(16.7531 -0.0295063 0)
(16.9268 -0.0252675 0)
(17.0904 -0.0215784 0)
(17.244 -0.0183345 0)
(17.387 -0.0154737 0)
(17.5188 -0.0130055 0)
(18.2025 -0.063138 0)
(18.1579 -0.0461711 0)
(18.1199 -0.0317606 0)
(18.0899 -0.02039 0)
(18.0689 -0.0120278 0)
(18.0572 -0.00631537 0)
(18.0548 -0.0027121 0)
(18.0605 -0.000493807 0)
(18.0724 0.000736453 0)
(18.088 0.0010794 0)
(19.5454 -0.0694201 0)
(19.4931 -0.0690166 0)
(19.4333 -0.0687849 0)
(19.3671 -0.0680989 0)
(19.2956 -0.0667763 0)
(19.2195 -0.0644353 0)
(19.1394 -0.0605941 0)
(19.0549 -0.0556831 0)
(18.9648 -0.0498017 0)
(18.8672 -0.0429482 0)
(19.815 0.0352787 0)
(19.7858 0.0503755 0)
(19.7464 0.0591114 0)
(19.6945 0.0637364 0)
(19.6283 0.0653289 0)
(19.5454 0.0644008 0)
(19.4435 0.0618691 0)
(19.3194 0.0586033 0)
(19.1698 0.0545744 0)
(18.9908 0.0497237 0)
(19.6343 -0.146495 0)
(19.5663 -0.134151 0)
(19.4791 -0.124109 0)
(19.3701 -0.113592 0)
(19.2359 -0.103122 0)
(19.0739 -0.0914668 0)
(18.8814 -0.0785293 0)
(18.6553 -0.0652784 0)
(18.3927 -0.052525 0)
(18.0918 -0.0408837 0)
(18.6148 0.200786 0)
(18.4144 0.216068 0)
(18.1893 0.226482 0)
(17.939 0.230488 0)
(17.663 0.231341 0)
(17.3618 0.231046 0)
(17.0353 0.230019 0)
(16.6835 0.227655 0)
(16.3072 0.224453 0)
(15.9071 0.220939 0)
(15.7888 -0.253124 0)
(15.4592 -0.237828 0)
(15.1236 -0.225252 0)
(14.7815 -0.216387 0)
(14.4307 -0.207766 0)
(14.0687 -0.199014 0)
(13.6944 -0.190075 0)
(13.3075 -0.18039 0)
(12.9087 -0.170224 0)
(12.4995 -0.160015 0)
(11.368 0.823409 0)
(11.0958 0.826716 0)
(10.8099 0.823461 0)
(10.5084 0.817171 0)
(10.1895 0.806487 0)
(9.85332 0.79215 0)
(9.50146 0.775185 0)
(9.13717 0.756178 0)
(8.76405 0.735442 0)
(8.38586 0.713429 0)
)
;

boundaryField
{
    walls
    {
        type            noSlip;
    }
    topInlet
    {
        type            fixedValue;
        value           nonuniform 0();
    }
    bottomInlet
    {
        type            fixedValue;
        value           nonuniform 0();
    }
    outlet
    {
        type            zeroGradient;
    }
    frontBack
    {
        type            empty;
    }
    procBoundary2to1
    {
        type            processor;
        value           nonuniform List<vector> 
20
(
(11.6358 -0.78535 0)
(16.1361 0.273799 0)
(18.7955 -0.166457 0)
(19.6889 0.167595 0)
(19.8414 0.00140434 0)
(19.6081 0.0781266 0)
(18.3109 0.0917147 0)
(15.768 0.0819856 0)
(15.0326 0.0349065 0)
(14.9097 0.0118741 0)
(14.9052 -0.00272228 0)
(15.0127 -0.025687 0)
(15.7162 -0.0735374 0)
(18.2512 -0.0822237 0)
(19.5889 -0.0727896 0)
(19.8359 0.0124836 0)
(19.6873 -0.161376 0)
(18.7882 0.180206 0)
(16.1139 -0.27205 0)
(11.6314 0.811755 0)
)
;
    }
    procBoundary2to3
    {
        type            processor;
        value           nonuniform List<vector> 
20
(
(8.04805 -0.680563 0)
(12.1154 0.149678 0)
(15.5107 -0.21524 0)
(17.7769 0.0304962 0)
(18.8093 -0.0461753 0)
(18.7966 0.0363972 0)
(18.1393 -0.00159554 0)
(17.6539 0.0114548 0)
(17.5465 0.00359441 0)
(17.5289 0.00101242 0)
(17.5277 -0.000554075 0)
(17.541 -0.00312215 0)
(17.6384 -0.0108931 0)
(18.1041 0.00100907 0)
(18.759 -0.0359183 0)
(18.7783 0.0455733 0)
(17.7512 -0.0295085 0)
(15.4845 0.216649 0)
(12.0816 -0.149787 0)
(8.00578 0.690076 0)
)
;
    }
}


// ************************************************************************* //
