/*--------------------------------*- C++ -*----------------------------------*\
| =========                 |                                                 |
| \\      /  F ield         | OpenFOAM: The Open Source CFD Toolbox           |
|  \\    /   O peration     | Version:  4.x                                   |
|   \\  /    A nd           | Web:      www.OpenFOAM.org                      |
|    \\/     M anipulation  |                                                 |
\*---------------------------------------------------------------------------*/
FoamFile
{
    version     2.0;
    format      ascii;
    class       volScalarField;
    location    "0.25";
    object      alpha.upper;
}
// * * * * * * * * * * * * * * * * * * * * * * * * * * * * * * * * * * * * * //

dimensions      [0 0 0 0 0 0 0];

internalField   nonuniform List<scalar> 
200
(
1.54148e-321
1.45255e-321
5.01393e-315
7.03079e-281
3.58075e-250
1.84707e-218
1.8735e-194
1.05976e-173
1.99833e-155
3.5379e-139
1.40315e-321
1.3241e-321
2.68049e-316
2.5527e-282
7.00913e-252
1.91016e-221
1.2223e-220
2.86311e-219
2.8594e-198
1.63251e-177
1.36362e-321
1.28457e-321
2.04569e-317
1.63824e-283
3.62596e-253
7.59749e-223
7.76827e-222
1.6219e-220
4.36852e-200
2.8006e-198
1.36362e-321
1.28457e-321
1.72945e-318
1.19845e-284
2.22505e-254
3.82014e-224
5.52252e-223
1.29605e-221
2.2915e-201
2.8856e-199
1.36362e-321
1.28457e-321
1.51095e-319
8.94446e-286
1.38922e-255
1.96123e-225
3.73901e-224
1.03992e-222
1.35977e-202
3.40823e-200
1.36362e-321
1.28457e-321
1.32212e-320
6.69887e-287
8.63245e-257
1.00062e-226
2.4419e-225
8.4275e-224
8.88286e-204
5.08852e-201
1.24505e-321
1.16599e-321
1.08694e-321
5.40883e-288
5.74992e-258
5.48922e-228
1.8361e-226
9.61081e-225
9.51963e-205
-1.43768e-194
4.88441e-316
1.72041e-315
8.90624e-315
5.23413e-288
3.02821e-258
1.85246e-228
-1.17116e-223
-6.55605e-206
-1.11348e-187
-1.04596e-171
3.70354e-232
7.35604e-232
1.65604e-231
4.2183e-231
1.24815e-230
-7.97928e-224
-4.70116e-206
-1.89776e-191
-6.72364e-177
-4.12815e-163
3.54951e-172
6.02453e-173
1.16689e-173
2.41453e-174
5.00745e-175
1.01181e-175
1.95191e-176
3.53384e-177
6.04601e-178
-3.04982e-160
0.995259
0.990024
0.984478
0.979105
0.973733
0.968271
0.96264
0.956711
0.950377
0.94379
1
1
1
1
1
1
1
1
1
1
1
1
1
1
1
1
1
1
1
1
1
1
1
1
1
1
1
1
1
1
1
1
1
1
1
1
1
1
1
1
1
1
1
1
1
1
1
1
1
1
1
1
1
1
1
1
1
1
1
1
1
1
1
1
1
1
1
1
1
1
1
1
1
1
1
1
1
1
1
1
1
1
1
1
1
1
1
1
1
1
)
;

boundaryField
{
    walls
    {
        type            zeroGradient;
    }
    topInlet
    {
        type            fixedValue;
        value           nonuniform 0();
    }
    bottomInlet
    {
        type            fixedValue;
        value           nonuniform 0();
    }
    outlet
    {
        type            inletOutlet;
        inletValue      nonuniform 0();
        value           nonuniform 0();
    }
    frontBack
    {
        type            empty;
    }
    procBoundary1to0
    {
        type            processor;
        value           nonuniform List<scalar> 
20
(
1.19564e-321
1.12647e-321
1.10671e-321
1.09683e-321
1.09683e-321
1.09683e-321
9.88131e-322
1.32091e-316
1.78403e-232
5.4468e-163
1
1
1
1
1
1
1
1
1
1
)
;
    }
    procBoundary1to2
    {
        type            processor;
        value           nonuniform List<scalar> 
20
(
1.339e-124
5.56499e-159
9.99326e-180
6.5605e-181
6.59355e-182
9.59547e-183
-7.08028e-176
-4.34751e-157
-3.91619e-150
-1.00766e-147
0.937227
1
1
1
1
1
1
1
1
1
)
;
    }
}


// ************************************************************************* //
