/*--------------------------------*- C++ -*----------------------------------*\
| =========                 |                                                 |
| \\      /  F ield         | OpenFOAM: The Open Source CFD Toolbox           |
|  \\    /   O peration     | Version:  4.x                                   |
|   \\  /    A nd           | Web:      www.OpenFOAM.org                      |
|    \\/     M anipulation  |                                                 |
\*---------------------------------------------------------------------------*/
FoamFile
{
    version     2.0;
    format      ascii;
    class       surfaceScalarField;
    location    "0.25";
    object      alphaPhi;
}
// * * * * * * * * * * * * * * * * * * * * * * * * * * * * * * * * * * * * * //

dimensions      [0 3 -1 0 0 0 0];

internalField   nonuniform List<scalar> 
370
(
0
0
0
0
5.39529e-318
8.83291e-320
7.35299e-284
8.63254e-286
3.64026e-253
2.4145e-255
1.82704e-221
6.65416e-225
1.80635e-197
-8.49634e-226
9.97551e-177
-4.13389e-224
1.83841e-158
-6.2642e-203
-4.72019e-182
0
0
0
0
3.75791e-319
9.34278e-321
3.53182e-285
7.82915e-287
9.56476e-255
1.80075e-256
2.56831e-224
3.90154e-226
1.61663e-223
1.83161e-225
3.7186e-222
2.68567e-224
3.64288e-201
8.25449e-204
-9.58019e-204
0
0
0
0
3.11607e-320
8.34971e-322
2.48483e-286
6.0937e-288
5.47419e-256
1.18679e-257
1.14125e-225
2.12825e-227
1.16049e-224
1.80492e-226
2.4083e-223
2.98505e-225
6.44039e-203
5.88707e-205
2.44502e-203
0
0
0
0
2.67784e-321
7.41098e-323
1.85338e-287
4.56015e-289
3.43931e-257
7.45021e-259
5.90169e-227
1.10187e-228
8.52576e-226
1.34241e-227
1.9988e-224
2.59121e-226
3.52841e-204
3.64803e-206
3.5713e-204
0
0
0
0
2.32211e-322
4.94066e-324
1.38517e-288
3.33256e-290
2.15274e-258
4.51681e-260
3.04084e-228
5.48508e-230
5.79945e-227
8.86767e-229
1.61308e-225
2.06976e-227
2.1084e-205
2.24622e-207
4.65384e-205
0
0
0
0
1.97626e-323
0
1.02932e-289
2.47792e-291
1.32665e-259
2.78324e-261
1.53778e-229
2.79732e-231
3.75159e-228
5.91183e-230
1.29374e-226
1.77785e-228
1.36186e-206
1.64582e-208
8.39437e-206
0
0
0
0
0
0
8.801e-291
2.17955e-292
9.33885e-261
2.02551e-262
8.8989e-231
1.69989e-232
2.97042e-229
5.06359e-231
1.55119e-227
2.39129e-229
1.53255e-207
2.15641e-209
-2.98613e-199
2.602e-319
2.68031e-320
9.41981e-319
7.13875e-320
5.01123e-318
2.82186e-319
3.02119e-291
1.34784e-292
1.79e-261
6.45868e-263
1.11893e-231
3.34382e-233
-7.21396e-227
-1.83125e-228
-4.11093e-209
-9.04981e-211
-7.09665e-191
-1.37584e-192
-1.16809e-176
6.21277e-236
9.79279e-237
1.42364e-235
1.15592e-236
3.53442e-235
1.95285e-236
9.68934e-235
3.99854e-236
3.03568e-234
9.75092e-236
-2.03168e-227
-5.30206e-229
-1.24315e-209
-2.73687e-211
-5.18111e-195
-9.91637e-197
-1.88663e-180
-3.20869e-182
-1.81286e-168
5.9085e-168
1.9847e-167
1.45265e-168
4.45585e-168
3.61431e-169
1.09122e-168
8.85315e-170
2.72899e-169
2.09822e-170
6.75493e-170
4.75624e-171
1.6226e-170
1.0227e-171
3.73354e-171
2.07271e-172
8.15426e-172
3.93916e-173
1.6788e-172
-3.2142e-166
6.75238e-05
-2.55486e-05
8.20948e-05
-1.4571e-05
9.25901e-05
-1.04953e-05
0.000100659
-8.06898e-06
0.000106959
-6.29963e-06
0.000111989
-5.03002e-06
0.000116082
-4.09298e-06
0.000119436
-3.35388e-06
0.000122187
-2.75183e-06
-2.28742e-06
0.000166566
-5.42633e-05
0.000192535
-4.05394e-05
0.000212581
-3.0542e-05
0.000228977
-2.44641e-05
0.000242588
-1.9911e-05
0.000254069
-1.65113e-05
0.000263944
-1.3968e-05
0.000272572
-1.19815e-05
0.000280198
-1.03779e-05
-9.10242e-06
0.000527869
-6.03802e-05
0.000543203
-5.58738e-05
0.000558776
-4.61152e-05
0.000573705
-3.93929e-05
0.000587937
-3.41429e-05
0.000601144
-2.97182e-05
0.000613337
-2.61616e-05
0.000624633
-2.32772e-05
0.000635125
-2.08706e-05
-1.88941e-05
0.00163871
-4.90995e-05
0.00163034
-4.75003e-05
0.00162595
-4.17208e-05
0.00162249
-3.59385e-05
0.00161938
-3.10279e-05
0.00161625
-2.65924e-05
0.00161278
-2.26878e-05
0.00160889
-1.93863e-05
0.00160467
-1.66531e-05
-1.4577e-05
0.00153869
-4.56288e-05
0.00153611
-4.49169e-05
0.0015355
-4.11091e-05
0.00153568
-3.61233e-05
0.00153587
-3.12148e-05
0.00153579
-2.65176e-05
0.0015352
-2.20961e-05
0.00153388
-1.80647e-05
0.00153172
-1.44878e-05
-1.15802e-05
0.00154889
-4.38923e-05
0.00154766
-4.36906e-05
0.00154762
-4.10657e-05
0.00154838
-3.68907e-05
0.00154934
-3.21725e-05
0.00155021
-2.7388e-05
0.00155078
-2.26696e-05
0.00155081
-1.80904e-05
0.00155014
-1.38195e-05
-1.02819e-05
0.00155032
-4.23827e-05
0.00154844
-4.18093e-05
0.00154713
-3.97519e-05
0.00154626
-3.603e-05
0.00154554
-3.14523e-05
0.00154477
-2.66128e-05
0.00154376
-2.16583e-05
0.00154217
-1.65037e-05
0.00153963
-1.12811e-05
-6.67419e-06
0.00153416
-3.73133e-05
0.00152878
-3.64233e-05
0.00152281
-3.37857e-05
0.00151621
-2.94254e-05
0.00150919
-2.44386e-05
0.00150163
-1.90445e-05
0.00149349
-1.35248e-05
0.00148441
-7.41975e-06
0.00147385
-7.19441e-07
5.73161e-06
0.00143434
-2.20143e-05
0.00141777
-1.98581e-05
0.00140056
-1.65744e-05
0.001382
-1.08616e-05
0.00136309
-5.53418e-06
0.00134286
1.18588e-06
0.00132066
8.67856e-06
0.00129683
1.64102e-05
0.00127213
2.39767e-05
3.09999e-05
0.00113566
0.00110497
0.00107379
0.00104379
0.00101466
0.000987552
0.000962942
0.000940493
0.000919494
)
;

boundaryField
{
    walls
    {
        type            calculated;
        value           nonuniform List<scalar> 
20
(
0
0
6.82305e-320
1.26237e-285
8.04414e-255
5.00593e-223
5.98603e-199
3.95289e-178
8.63824e-160
1.75419e-143
9.28204e-06
1.08262e-05
1.46063e-05
1.91418e-05
2.35902e-05
2.82985e-05
3.32885e-05
3.88596e-05
4.49759e-05
5.14782e-05
)
;
    }
    topInlet
    {
        type            calculated;
        value           nonuniform 0();
    }
    bottomInlet
    {
        type            calculated;
        value           nonuniform 0();
    }
    outlet
    {
        type            calculated;
        value           nonuniform 0();
    }
    frontBack
    {
        type            empty;
        value           nonuniform 0();
    }
    procBoundary1to0
    {
        type            processor;
        value           nonuniform List<scalar> 
20
(
0
0
0
0
0
0
0
-6.96138e-320
-2.48541e-236
-2.29716e-167
-4.19753e-05
-0.000137852
-0.000521752
-0.00165
-0.00154216
-0.00155062
-0.00155183
-0.00153923
-0.00144964
-0.00116695
)
;
    }
    procBoundary1to2
    {
        type            processor;
        value           nonuniform List<scalar> 
20
(
3.18165e-142
2.0382e-180
4.09482e-201
4.43268e-202
5.2803e-203
7.78694e-204
-2.30834e-197
-6.76675e-175
-1.18632e-166
-4.03767e-164
0.000124475
0.000287013
0.000644917
0.00160035
0.00152872
0.00154884
0.00153602
0.00146144
0.00124686
0.000899016
)
;
    }
}


// ************************************************************************* //
