/*--------------------------------*- C++ -*----------------------------------*\
| =========                 |                                                 |
| \\      /  F ield         | OpenFOAM: The Open Source CFD Toolbox           |
|  \\    /   O peration     | Version:  4.x                                   |
|   \\  /    A nd           | Web:      www.OpenFOAM.org                      |
|    \\/     M anipulation  |                                                 |
\*---------------------------------------------------------------------------*/
FoamFile
{
    version     2.0;
    format      ascii;
    class       volScalarField;
    location    "0.25";
    object      p_rgh;
}
// * * * * * * * * * * * * * * * * * * * * * * * * * * * * * * * * * * * * * //

dimensions      [1 -1 -2 0 0 0 0];

internalField   nonuniform List<scalar> 
200
(
2009.28
2004.21
2338.11
2646.05
2852.38
2977.19
3052.85
3111.03
3156.96
3178.99
-531.921
-150.537
85.7024
45.1725
-18.0412
-78.3971
-172.575
-286.616
-351.766
-426.245
2029.07
2042.62
2133.42
2138.27
2099.35
2040.63
1954.5
1827.81
1655.65
1549.54
1826.42
2142.86
2392.63
2433.2
2255.67
1956.3
1603.64
1226.02
864.578
585.064
2892.98
3397.52
3729.04
3676.53
3307.56
2829.5
2361.84
1939.67
1589.16
1343.07
3319.37
4251.43
4752.62
4560.01
3959.18
3286.7
2659.41
2094.09
1608.16
1226.41
3950.43
5856.91
6563.7
5988.34
4990.15
4042.41
3211.96
2496.66
1913.57
1479.1
3178.01
6807.19
7713.8
6717.23
5431.55
4312.56
3366.93
2578.89
1953.12
1491.54
2319.74
7173.71
8069.03
6933.96
5578.92
4411.85
3432.13
2622.43
1983.07
1512.53
2076.44
7368.9
8171.05
6986.96
5613.15
4433.6
3445.96
2631.63
1989.51
1517.3
2069.01
7366.29
8169.25
6985.79
5612.38
4433.06
3445.56
2631.3
1989.26
1517.18
2301.17
7167.86
8065.77
6932.1
5577.83
4411.17
3431.62
2621.93
1982.72
1512.58
3154.92
6802.58
7714.63
6719.03
5433.45
4314.32
3368.27
2579.65
1953.86
1493.08
3951.43
5876.49
6587.28
6007.93
5005.78
4055.17
3221.78
2503.83
1920.88
1490.06
3314.94
4257.62
4764.15
4572
3971.18
3297.63
2666.3
2094.67
1604.29
1221.18
2903.55
3409.32
3745.19
3696.18
3331.08
2854.74
2385.92
1963.64
1622.93
1388.73
1839.92
2155.87
2404.29
2445.91
2270.03
1964.12
1597.11
1203.21
841.048
588.309
2051.21
2071.54
2170.22
2191.03
2172.66
2112.26
2015.93
1861.35
1701.4
1580.09
-574.269
-198.563
26.7029
-13.3017
-23.541
-81.5263
-186.296
-282.019
-355.035
-434.96
2164.53
2156.72
2485.18
2793.4
2966.25
3079.39
3151.23
3211.41
3254.71
3270.5
)
;

boundaryField
{
    walls
    {
        type            fixedValue;
        value           uniform 0;
    }
    topInlet
    {
        type            fixedValue;
        value           nonuniform 0();
    }
    bottomInlet
    {
        type            fixedValue;
        value           nonuniform 0();
    }
    outlet
    {
        type            fixedValue;
        value           nonuniform 0();
    }
    frontBack
    {
        type            empty;
    }
    procBoundary1to0
    {
        type            processor;
        value           nonuniform List<scalar> 
20
(
4260.44
-387.734
2512.17
1486.71
2443.23
2392.7
1851.41
644.943
-32.0247
-75.8184
-107.881
-78.9072
603.499
1832.5
2382.11
2469.07
1481.23
2531.78
-420.486
4376.25
)
;
    }
    procBoundary1to2
    {
        type            processor;
        value           nonuniform List<scalar> 
20
(
3163.33
-476.282
1433.29
452.295
1188.63
958.155
1187.11
1177.62
1192.24
1195.9
1195.84
1192.37
1179.03
1200.41
948.793
1229.91
454.725
1462.86
-471.289
3246
)
;
    }
}


// ************************************************************************* //
