/*--------------------------------*- C++ -*----------------------------------*\
| =========                 |                                                 |
| \\      /  F ield         | OpenFOAM: The Open Source CFD Toolbox           |
|  \\    /   O peration     | Version:  4.x                                   |
|   \\  /    A nd           | Web:      www.OpenFOAM.org                      |
|    \\/     M anipulation  |                                                 |
\*---------------------------------------------------------------------------*/
FoamFile
{
    version     2.0;
    format      ascii;
    class       surfaceScalarField;
    location    "0.4";
    object      alphaPhi;
}
// * * * * * * * * * * * * * * * * * * * * * * * * * * * * * * * * * * * * * //

dimensions      [0 3 -1 0 0 0 0];

internalField   nonuniform List<scalar> 
1530
(
0
0
0
0
0
0
0
0
0
0
0
0
0
0
0
0
0
0
0
0
0
0
0
0
0
0
0
0
0
0
0
0
0
0
0
0
0
0
0
0
0
0
0
0
0
0
0
0
0
0
0
0
0
0
0
0
0
0
0
0
0
0
0
0
0
0
0
0
0
0
0
0
0
0
0
0
0
0
0
0
0
0
0
0
0
0
0
0
0
0
0
0
0
0
0
0
0
0
0
0
0
0
0
0
0
0
0
0
0
0
0
0
0
0
0
0
0
0
0
0
0
0
0
0
0
0
0
0
0
0
0
0
0
0
0
0
0
0
0
0
0
0
0
0
0
0
0
0
0
0
0
0
0
0
0
0
0
0
0
0
0
0
0
0
0
0
0
0
0
0
0
0
0
0
0
0
0
0
0
0
0
0
0
0
0
0
0
0
3.21742e-295
5.34439e-224
7.04476e-05
-0.000158748
4.49239e-05
-0.000134881
3.40074e-05
-0.000103928
2.82084e-05
-8.50681e-05
2.46694e-05
-7.38596e-05
2.21414e-05
-6.6404e-05
2.00317e-05
-6.01041e-05
1.80295e-05
-5.3074e-05
1.60998e-05
-4.0766e-05
-2.3385e-05
4.19753e-05
0.000279033
-6.75482e-05
0.000223887
-7.97348e-05
0.000189918
-6.9959e-05
0.00016771
-6.28598e-05
0.000152412
-5.85611e-05
0.000140627
-5.46193e-05
0.000130474
-4.99517e-05
0.000121285
-4.38846e-05
0.000116087
-3.55678e-05
-4.51497e-05
0.000137852
0.000778393
-4.68838e-05
0.00074094
-4.22821e-05
0.000706506
-3.55252e-05
0.00067149
-2.78432e-05
0.000637392
-2.44637e-05
0.000605346
-2.25731e-05
0.000575652
-2.02575e-05
0.000549463
-1.76958e-05
0.000531816
-1.79207e-05
-3.50855e-05
0.000521752
0.00173007
-5.05502e-05
0.00172577
-3.79838e-05
0.00172187
-3.16277e-05
0.00171837
-2.43426e-05
0.00171258
-1.86743e-05
0.00170445
-1.44428e-05
0.00169488
-1.06808e-05
0.00168476
-7.57511e-06
0.00167363
-6.79811e-06
-1.1448e-05
0.00165
0.00154247
-5.25271e-05
0.00154413
-3.9639e-05
0.00154475
-3.22541e-05
0.00154622
-2.5807e-05
0.00154755
-2.0011e-05
0.00154831
-1.5202e-05
0.00154877
-1.11367e-05
0.00154904
-7.8459e-06
0.00154808
-5.8406e-06
-5.5287e-06
0.00154216
0.001545
-5.3693e-05
0.00154658
-4.12139e-05
0.00154749
-3.31661e-05
0.00154877
-2.70889e-05
0.00155023
-2.1467e-05
0.00155145
-1.64274e-05
0.00155242
-1.20998e-05
0.00155302
-8.45044e-06
0.00155273
-5.5544e-06
-3.41631e-06
0.00155062
0.00154775
-5.46707e-05
0.00154885
-4.2307e-05
0.00154953
-3.3845e-05
0.00155043
-2.79925e-05
0.00155155
-2.25903e-05
0.0015527
-1.75725e-05
0.00155378
-1.3183e-05
0.00155456
-9.22799e-06
0.00155408
-5.07732e-06
-1.16507e-06
0.00155183
0.00155061
-5.59035e-05
0.00155057
-4.22663e-05
0.00154995
-3.32239e-05
0.00154903
-2.70751e-05
0.00154763
-2.11842e-05
0.00154596
-1.59108e-05
0.00154422
-1.14355e-05
0.00154245
-7.46249e-06
0.00154075
-3.37309e-06
3.47236e-07
0.00153923
0.00154854
-5.32483e-05
0.00154115
-3.48761e-05
0.0015335
-2.55715e-05
0.00152472
-1.82975e-05
0.00151424
-1.0706e-05
0.00150317
-4.84394e-06
0.00149106
6.81856e-07
0.0014779
5.68986e-06
0.00146428
1.02507e-05
1.49908e-05
0.00144964
0.00147754
0.00142081
0.00137308
0.00133048
0.00129292
0.00125935
0.00122984
0.00120424
0.00118257
0.00116695
0
0
0
0
0
0
0
0
0
0
0
0
1.70348e-309
0
1.29453e-276
0
1.45549e-247
-1.17444e-319
1.11902e-221
-2.72709e-286
2.09549e-198
-1.72831e-256
1.88083e-177
-1.50515e-229
1.3606e-158
-2.9538e-205
1.23792e-141
-2.08535e-183
2.05709e-126
-8.46622e-164
8.58026e-113
-3.12542e-146
1.23058e-100
-1.61907e-130
7.78343e-90
-1.66767e-116
2.84021e-80
-4.942e-104
7.63678e-72
-5.7465e-93
2.04064e-64
-3.78942e-83
6.49311e-58
-1.78807e-74
1.27174e-52
-1.59475e-67
6.64523e-50
-1.44943e-64
1.30741e-47
-5.0683e-62
1.4014e-45
-9.9502e-60
5.81383e-26
-7.45688e-26
5.98415e-25
-7.07058e-25
2.87036e-24
-3.16456e-24
-3.32021e-24
0
0
0
0
0
0
0
0
0
0
0
0
0
0
0
0
6.82974e-318
1.54741e-320
1.17757e-284
-1.6566e-320
6.02364e-255
-2.06183e-291
4.39334e-228
-2.95658e-262
7.35838e-204
-7.86308e-236
4.48354e-182
-6.23175e-212
1.58173e-162
-3.6234e-190
5.09317e-145
-2.03111e-170
2.30983e-129
-1.51882e-152
2.08453e-115
-1.94064e-136
5.41803e-103
-5.78187e-122
5.5274e-92
-5.25457e-109
3.2021e-82
-2.06677e-97
1.33062e-73
-4.27437e-87
1.0799e-66
-6.89927e-79
9.81774e-64
-8.47126e-76
3.3931e-61
-4.27295e-73
6.59246e-59
-1.26124e-70
4.89959e-25
-5.64528e-25
4.64824e-24
-4.86534e-24
1.99483e-23
-1.84646e-23
-1.81851e-23
0
0
0
0
0
0
0
0
0
0
0
0
0
0
0
0
1.20745e-319
1.10177e-321
7.08058e-318
4.22772e-320
3.23667e-289
1.1627e-291
2.86022e-260
3.44382e-263
5.48526e-234
-1.56444e-249
3.35038e-210
-4.735e-225
1.56152e-188
-8.21653e-203
7.19809e-169
-1.62949e-182
4.49749e-151
-3.59293e-164
4.83838e-135
-1.71229e-147
1.22118e-120
-2.38526e-132
9.42868e-108
-1.2059e-118
3.16502e-96
-2.98748e-106
5.62639e-86
-4.12156e-95
8.10047e-78
-2.95682e-86
9.75764e-75
-3.23742e-83
4.7743e-72
-1.6428e-80
1.37111e-69
-6.1794e-78
6.00988e-24
-6.57441e-24
5.08012e-23
-4.96566e-23
1.93717e-22
-1.6138e-22
-1.57884e-22
0
0
0
0
0
0
0
0
0
0
0
0
0
0
0
0
6.61554e-321
6.91692e-323
7.57358e-319
6.10171e-321
2.24799e-290
1.42936e-292
6.13642e-262
3.06331e-264
1.37175e-246
5.1653e-249
1.33118e-222
3.43749e-225
1.33093e-200
1.85865e-203
1.78572e-180
1.45676e-184
2.90421e-162
-1.31713e-168
1.05412e-145
-1.10269e-151
1.14663e-130
-2.01615e-136
4.59392e-117
-1.34754e-122
9.15381e-105
-4.67044e-110
1.0323e-93
-1.21012e-98
6.33087e-85
-1.05734e-89
6.55399e-82
-6.99331e-87
3.1244e-79
-2.39085e-84
1.11079e-76
-1.94328e-81
1.12922e-22
-1.19497e-22
8.19731e-22
-7.56466e-22
2.72045e-21
-2.0621e-21
-1.99409e-21
0
0
0
0
0
0
0
0
0
0
0
0
0
0
0
0
3.95253e-322
4.94066e-324
8.86206e-320
7.80624e-322
2.28263e-291
1.7128e-293
4.40932e-263
2.90798e-265
3.20398e-247
1.89901e-249
1.9514e-223
1.05783e-225
9.47897e-202
4.7565e-204
7.10702e-183
3.29323e-185
9.71321e-166
4.14829e-168
3.51248e-149
1.3198e-151
3.77993e-134
1.1438e-136
1.63955e-120
3.1301e-123
3.96883e-108
1.37015e-111
7.5266e-97
-1.71282e-99
5.13419e-88
-1.21951e-90
2.98289e-85
-6.04472e-88
9.02347e-83
-2.07268e-85
6.57473e-80
-2.45952e-82
3.69913e-21
-3.81862e-21
2.16858e-20
-1.87432e-20
6.05644e-20
-4.09407e-20
-3.91358e-20
0
0
0
0
0
0
0
0
0
0
0
0
0
0
0
0
2.47033e-323
0
1.26678e-320
1.38338e-322
3.27756e-292
3.25164e-294
4.96103e-264
4.67165e-266
-1.76112e-246
-1.60575e-248
-1.49971e-222
-1.33939e-224
-4.53683e-201
-3.99309e-203
-1.15978e-181
-1.00593e-183
-1.81948e-164
-1.55476e-166
5.29183e-148
4.40238e-150
4.91603e-133
3.91223e-135
1.26227e-119
9.2578e-122
1.53531e-107
9.89918e-110
9.64842e-97
5.04618e-99
2.76553e-88
9.66989e-91
8.848e-86
1.28026e-88
2.23865e-83
-2.03839e-85
2.08811e-80
-2.30101e-82
2.70419e-19
-2.74237e-19
1.146e-18
-9.02142e-19
2.54654e-18
-1.48146e-18
-1.25436e-18
0
0
0
0
0
0
0
0
0
0
0
0
0
0
0
0
0
0
-6.17541e-314
-7.98867e-316
-5.20812e-284
-6.25614e-286
-1.18732e-256
-1.33712e-258
-6.57024e-232
-6.96962e-234
-1.43077e-209
-1.42932e-211
-1.4491e-189
-1.35871e-191
-1.52682e-171
-1.3357e-173
-2.69092e-155
-2.18893e-157
-8.42452e-141
-6.32474e-143
-7.59133e-128
-5.20456e-130
-2.18789e-116
-1.33952e-118
2.7108e-105
1.43984e-107
2.45964e-94
1.08291e-96
3.06758e-86
1.01372e-88
5.81547e-84
1.18461e-86
5.56774e-82
5.50514e-85
1.12399e-79
2.59691e-84
7.73976e-17
-7.76719e-17
1.82963e-16
-1.46729e-16
2.98045e-16
-2.56396e-16
-2.70834e-16
0
0
0
0
0
0
0
0
0
0
0
0
0
0
0
0
-2.57654e-303
-4.99518e-305
-5.71224e-278
-9.86063e-280
-1.25502e-254
-1.95261e-256
-6.84109e-233
-9.73609e-235
-8.68969e-213
-1.14337e-214
-3.03674e-194
-3.70375e-196
-2.74006e-177
-3.08573e-179
-1.05244e-161
-1.08482e-163
-2.26157e-147
-2.12569e-149
-2.23133e-134
-1.89695e-136
-1.50178e-122
-1.14069e-124
-9.34702e-112
-6.14596e-114
-5.69815e-102
-3.10343e-104
-2.07331e-93
-8.72233e-96
3.75641e-86
1.05984e-88
4.06107e-86
4.63831e-86
7.62411e-86
5.55876e-85
1.87099e-13
-1.87099e-13
4.77267e-13
-4.45295e-13
8.04989e-13
-7.56729e-13
9.77261e-13
-9.84614e-13
-9.64344e-13
0
0
0
0
0
0
0
0
0
0
0
0
0
0
-2.03476e-310
-3.89442e-312
-1.84835e-287
-3.14359e-289
-1.55884e-265
-2.38213e-267
-8.85647e-245
-1.23036e-246
-3.77001e-225
-4.86378e-227
-1.15482e-206
-1.40707e-208
-2.4346e-189
-2.80487e-191
-2.72657e-173
-2.93424e-175
-2.28099e-158
-2.24371e-160
-1.69242e-144
-1.50852e-146
-7.24254e-132
-5.7613e-134
-3.01081e-120
-2.09114e-122
-1.82711e-109
-1.0373e-111
-1.122e-99
-4.68141e-102
-1.86157e-90
-4.61077e-93
-1.16313e-82
-8.06292e-86
1.53141e-10
-1.53141e-10
6.39531e-10
-4.89548e-10
1.43889e-09
-8.0964e-10
2.21254e-09
-7.91737e-10
3.06097e-09
-8.67878e-10
3.62581e-09
-5.8489e-10
1.4231e-09
1.37462e-224
4.61744e-224
3.37962e-225
1.03666e-224
8.40875e-226
2.53875e-225
2.0597e-226
6.34905e-226
4.88155e-227
1.57155e-226
1.10655e-227
3.775e-227
2.37932e-228
8.68614e-228
4.82221e-229
1.8971e-228
9.16452e-230
3.90576e-229
1.62629e-230
7.53823e-230
5.7309e-240
2.89813e-239
-1.11697e-222
-9.15039e-225
-1.14337e-204
-9.85206e-207
-1.07591e-187
-9.55381e-190
-6.82984e-172
-5.95881e-174
-3.97958e-157
-3.20036e-159
-2.32228e-143
-1.67987e-145
-8.15708e-131
-5.10791e-133
-3.01922e-119
-1.54773e-121
-1.84297e-108
-6.27079e-111
-1.15772e-98
-1.3345e-101
1.29291e-07
-1.29291e-07
4.90483e-07
-3.61192e-07
1.0435e-06
-5.53173e-07
1.79391e-06
-7.50891e-07
2.73267e-06
-9.39559e-07
3.70434e-06
-9.72445e-07
4.70949e-06
-1.006e-06
5.76109e-06
-1.05217e-06
-9.62889e-07
6.75238e-05
-2.55486e-05
8.20948e-05
-1.4571e-05
9.25901e-05
-1.04953e-05
0.000100659
-8.06898e-06
0.000106959
-6.29963e-06
0.000111989
-5.03002e-06
0.000116082
-4.09298e-06
0.000119436
-3.35388e-06
0.000122187
-2.75183e-06
0.000124475
-2.28742e-06
0.000126406
-1.92723e-06
0.000128005
-1.59878e-06
0.000129291
-1.28636e-06
0.000130316
-1.02424e-06
0.00013116
-8.44259e-07
0.000131921
-7.60881e-07
0.000132634
-7.12669e-07
0.000133334
-7.00481e-07
0.000134055
-7.20677e-07
0.00013489
-8.35431e-07
0.000135911
-1.03512e-06
0.000137071
-1.28939e-06
0.000138217
-1.50722e-06
0.000139265
-1.60084e-06
0.000140265
-1.7505e-06
0.00014122
-1.89529e-06
0.000142026
-1.77838e-06
0.000142725
-1.70486e-06
0.00014336
-1.68696e-06
-1.51577e-06
0.000166566
-5.42633e-05
0.000192535
-4.05394e-05
0.000212581
-3.0542e-05
0.000228977
-2.44641e-05
0.000242588
-1.9911e-05
0.000254069
-1.65113e-05
0.000263944
-1.3968e-05
0.000272572
-1.19815e-05
0.000280198
-1.03779e-05
0.000287013
-9.10242e-06
0.000293177
-8.09099e-06
0.000298806
-7.22753e-06
0.000303974
-6.45532e-06
0.000308735
-5.78501e-06
0.000313128
-5.23728e-06
0.000317185
-4.81803e-06
0.00032093
-4.45756e-06
0.000324376
-4.14582e-06
0.000327527
-3.87188e-06
0.000330382
-3.69094e-06
0.000332938
-3.59038e-06
0.000335171
-3.5232e-06
0.000337002
-3.33776e-06
0.000338327
-2.92567e-06
0.000339257
-2.68114e-06
0.000339833
-2.47077e-06
0.000340075
-2.02068e-06
0.000340068
-1.6978e-06
0.000339919
-1.53824e-06
-1.35186e-06
0.000527869
-6.03802e-05
0.000543203
-5.58738e-05
0.000558776
-4.61152e-05
0.000573705
-3.93929e-05
0.000587937
-3.41429e-05
0.000601144
-2.97182e-05
0.000613337
-2.61616e-05
0.000624633
-2.32772e-05
0.000635125
-2.08706e-05
0.000644917
-1.88941e-05
0.000654127
-1.73004e-05
0.000662821
-1.59224e-05
0.00067103
-1.4664e-05
0.000678776
-1.35307e-05
0.000686084
-1.25455e-05
0.000692972
-1.17062e-05
0.000699449
-1.09346e-05
0.000705504
-1.02002e-05
0.000711116
-9.48468e-06
0.000716253
-8.82706e-06
0.000720875
-8.21279e-06
0.000724913
-7.56132e-06
0.000728175
-6.59952e-06
0.000730461
-5.21201e-06
0.000731969
-4.18864e-06
0.000732748
-3.25055e-06
0.000732842
-2.11416e-06
0.000732353
-1.20863e-06
0.000731746
-9.31962e-07
-6.78447e-07
0.00163871
-4.90995e-05
0.00163034
-4.75003e-05
0.00162595
-4.17208e-05
0.00162249
-3.59385e-05
0.00161938
-3.10279e-05
0.00161625
-2.65924e-05
0.00161278
-2.26878e-05
0.00160889
-1.93863e-05
0.00160467
-1.66531e-05
0.00160035
-1.4577e-05
0.00159627
-1.32172e-05
0.00159266
-1.23116e-05
0.00158967
-1.16744e-05
0.00158741
-1.12709e-05
0.00158595
-1.10917e-05
0.00158532
-1.10727e-05
0.00158545
-1.10675e-05
0.00158621
-1.09606e-05
0.00158742
-1.06868e-05
0.0015888
-1.02092e-05
0.00159009
-9.49973e-06
0.00159094
-8.41497e-06
0.00159092
-6.58301e-06
0.00158986
-4.15017e-06
0.00158774
-2.06337e-06
0.00158443
5.09221e-08
0.00157991
2.41049e-06
0.00157413
4.57313e-06
0.00156865
4.54717e-06
3.28551e-06
0.00153869
-4.56288e-05
0.00153611
-4.49169e-05
0.0015355
-4.11091e-05
0.00153568
-3.61233e-05
0.00153587
-3.12148e-05
0.00153579
-2.65176e-05
0.0015352
-2.20961e-05
0.00153388
-1.80647e-05
0.00153172
-1.44878e-05
0.00152872
-1.15802e-05
0.00152501
-9.50769e-06
0.00152066
-7.96049e-06
0.00151576
-6.77527e-06
0.0015104
-5.90701e-06
0.00150464
-5.3401e-06
0.00149855
-4.9835e-06
0.00149215
-4.65887e-06
0.00148534
-4.15565e-06
0.00147802
-3.36776e-06
0.00147
-2.18916e-06
0.00146103
-5.30377e-07
0.00145081
1.80394e-06
0.00143934
4.89327e-06
0.00142742
7.77162e-06
0.00141475
1.06058e-05
0.00140124
1.35547e-05
0.00138697
1.66821e-05
0.00137194
1.96021e-05
0.00135753
1.89624e-05
1.15612e-05
0.00154889
-4.38923e-05
0.00154766
-4.36906e-05
0.00154762
-4.10657e-05
0.00154838
-3.68907e-05
0.00154934
-3.21725e-05
0.00155021
-2.7388e-05
0.00155078
-2.26696e-05
0.00155081
-1.80904e-05
0.00155014
-1.38195e-05
0.00154884
-1.02819e-05
0.00154696
-7.61892e-06
0.00154431
-5.31481e-06
0.00154076
-3.2217e-06
0.00153617
-1.3195e-06
0.00153039
4.42818e-07
0.00152322
2.18327e-06
0.00151444
4.12288e-06
0.0015038
6.47695e-06
0.00149104
9.39962e-06
0.0014758
1.30448e-05
0.00145784
1.74356e-05
0.00143696
2.2679e-05
0.00141381
2.80413e-05
0.00139054
3.10423e-05
0.00136695
3.42039e-05
0.00134321
3.72912e-05
0.00131959
4.03011e-05
0.0012962
4.29943e-05
0.00127401
4.11468e-05
2.33535e-05
0.00155032
-4.23827e-05
0.00154844
-4.18093e-05
0.00154713
-3.97519e-05
0.00154626
-3.603e-05
0.00154554
-3.14523e-05
0.00154477
-2.66128e-05
0.00154376
-2.16583e-05
0.00154217
-1.65037e-05
0.00153963
-1.12811e-05
0.00153602
-6.67419e-06
0.00153139
-2.98847e-06
0.00152537
7.04643e-07
0.00151778
4.37639e-06
0.00150832
8.13476e-06
0.00149681
1.19552e-05
0.00148303
1.5961e-05
0.00146677
2.03882e-05
0.00144775
2.54916e-05
0.00142581
3.1338e-05
0.00140085
3.80135e-05
0.00137277
4.55107e-05
0.00134175
5.37007e-05
0.00130904
6.07459e-05
0.00127778
6.23047e-05
0.00124759
6.44008e-05
0.00121863
6.62512e-05
0.00119105
6.78722e-05
0.00116487
6.91805e-05
0.00113981
6.62078e-05
3.70837e-05
0.00153416
-3.73133e-05
0.00152878
-3.64233e-05
0.00152281
-3.37857e-05
0.00151621
-2.94254e-05
0.00150919
-2.44386e-05
0.00150163
-1.90445e-05
0.00149349
-1.35248e-05
0.00148441
-7.41975e-06
0.00147385
-7.19442e-07
0.00146144
5.73162e-06
0.00144686
1.15893e-05
0.00143029
1.72761e-05
0.00141182
2.28442e-05
0.00139127
2.86901e-05
0.0013688
3.44231e-05
0.00134434
4.04232e-05
0.00131789
4.68407e-05
0.0012895
5.38763e-05
0.00125923
6.16113e-05
0.00122714
7.01014e-05
0.00119335
7.9297e-05
0.00115808
8.89752e-05
0.00112258
9.62443e-05
0.00108999
9.48909e-05
0.00105964
9.47578e-05
0.00103144
9.44513e-05
0.0010053
9.40073e-05
0.000980944
9.3539e-05
0.000956422
9.07293e-05
5.00868e-05
0.00143434
-2.20143e-05
0.00141777
-1.98581e-05
0.00140056
-1.65744e-05
0.001382
-1.08616e-05
0.00136309
-5.53418e-06
0.00134286
1.18588e-06
0.00132066
8.67855e-06
0.00129683
1.64102e-05
0.00127213
2.39767e-05
0.00124686
3.09999e-05
0.00122132
3.71357e-05
0.00119537
4.32287e-05
0.00116886
4.93464e-05
0.00114186
5.56924e-05
0.00111403
6.22516e-05
0.00108529
6.91626e-05
0.00105559
7.65466e-05
0.00102493
8.45385e-05
0.000993385
9.31519e-05
0.000961096
0.00010239
0.000928199
0.000112194
0.000894749
0.000122425
0.000861754
0.00012924
0.00083218
0.000124465
0.00080536
0.000121578
0.000781034
0.000118777
0.000758778
0.000116263
0.000739195
0.000113122
0.000715673
0.000114252
6.60387e-05
0.00113566
0.00110497
0.00107379
0.00104379
0.00101466
0.000987552
0.000962942
0.000940493
0.000919494
0.000899016
0.000878082
0.000856311
0.000833394
0.000809198
0.000783645
0.000756802
0.000728851
0.000700064
0.000670726
0.000641112
0.00061147
0.000581749
0.000552528
0.000526829
0.000504299
0.000484369
0.000466401
0.000451492
0.000429737
)
;

boundaryField
{
    walls
    {
        type            calculated;
        value           nonuniform List<scalar> 
100
(
0
0
0
0
0
0
0
0
8.47087e-295
-2.22787e-225
0
0
0
0
0
0
0
0
0
0
0
0
0
0
0
0
5.64513e-311
5.12969e-278
6.83901e-249
6.16969e-223
1.33788e-199
1.37946e-178
1.14088e-159
1.18249e-142
2.2321e-127
1.05558e-113
1.71276e-101
1.22431e-90
5.04356e-81
1.53021e-72
4.61083e-65
1.65605e-58
3.56097e-53
1.85163e-50
3.65655e-48
3.93603e-46
1.64304e-26
1.66781e-25
8.92608e-25
9.97828e-25
9.28204e-06
1.08262e-05
1.46063e-05
1.91418e-05
2.35902e-05
2.82985e-05
3.32885e-05
3.88596e-05
4.49759e-05
5.14782e-05
5.80695e-05
6.49989e-05
7.22636e-05
7.98891e-05
8.78042e-05
9.60057e-05
0.000104497
0.000113325
0.00012249
0.000132004
0.000141836
0.000152146
0.000158461
0.000150164
0.000144108
0.000138707
0.000134231
0.000128032
0.000136007
8.03443e-05
0.000262546
0.000160404
0.000114844
9.08671e-05
7.73986e-05
6.8932e-05
6.22138e-05
5.50762e-05
4.26957e-05
-2.49046e-06
2.22545e-05
2.18579e-05
2.21561e-05
2.42984e-05
2.68575e-05
2.87223e-05
3.01924e-05
3.12943e-05
3.19253e-05
3.0602e-05
)
;
    }
    topInlet
    {
        type            calculated;
        value           nonuniform List<scalar> 10(-0.000174246 -0.000370233 -0.000799057 -0.0017264 -0.00154049 -0.00154384 -0.00154678 -0.00154938 -0.00155119 -0.00155304);
    }
    bottomInlet
    {
        type            calculated;
        value           uniform 0;
    }
    outlet
    {
        type            calculated;
        value           nonuniform List<scalar> 
20
(
5.19275e-24
3.48131e-23
3.33416e-22
4.55666e-21
9.77061e-20
3.68858e-18
3.12022e-16
6.8207e-13
2.17708e-09
6.72542e-06
0.000143913
0.000339756
0.000731073
0.00156469
0.00134925
0.00126222
0.00112608
0.000943419
0.000699721
0.000415431
)
;
    }
    frontBack
    {
        type            empty;
        value           nonuniform 0();
    }
}


// ************************************************************************* //
