/*--------------------------------*- C++ -*----------------------------------*\
| =========                 |                                                 |
| \\      /  F ield         | OpenFOAM: The Open Source CFD Toolbox           |
|  \\    /   O peration     | Version:  4.x                                   |
|   \\  /    A nd           | Web:      www.OpenFOAM.org                      |
|    \\/     M anipulation  |                                                 |
\*---------------------------------------------------------------------------*/
FoamFile
{
    version     2.0;
    format      ascii;
    class       volScalarField;
    location    "0.4";
    object      alpha.upper;
}
// * * * * * * * * * * * * * * * * * * * * * * * * * * * * * * * * * * * * * //

dimensions      [0 0 0 0 0 0 0];

internalField   nonuniform List<scalar> 
800
(
0
0
0
0
1.15611e-321
1.16599e-321
1.17588e-321
1.18576e-321
1.18576e-321
1.19564e-321
0
0
0
0
1.10671e-321
1.10671e-321
1.10671e-321
1.11659e-321
1.11659e-321
1.12647e-321
0
0
0
0
1.09683e-321
1.09683e-321
1.09683e-321
1.10671e-321
1.10671e-321
1.10671e-321
0
0
0
0
1.08694e-321
1.08694e-321
1.09683e-321
1.09683e-321
1.09683e-321
1.09683e-321
0
0
0
0
1.08694e-321
1.08694e-321
1.08694e-321
1.09683e-321
1.09683e-321
1.09683e-321
0
0
0
0
1.08694e-321
1.08694e-321
1.08694e-321
1.09683e-321
1.09683e-321
1.09683e-321
0
0
0
0
9.68369e-322
9.7825e-322
9.7825e-322
9.88131e-322
9.88131e-322
9.88131e-322
0
0
0
0
2.19365e-321
2.23318e-321
2.2727e-321
2.30235e-321
2.33199e-321
2.33199e-321
0
0
0
0
1.04347e-320
1.06521e-320
1.08497e-320
1.10473e-320
1.12647e-320
1.12054e-320
0
0
0
0
2.2648e-320
2.32408e-320
2.37349e-320
2.42586e-320
1.95665e-290
1.26721e-219
1
1
1
1
1
1
1
1
1
1
1
1
1
1
1
1
1
1
1
1
1
1
1
1
1
1
1
1
1
1
1
1
1
1
1
1
1
1
1
1
1
1
1
1
1
1
1
1
1
1
1
1
1
1
1
1
1
1
1
1
1
1
1
1
1
1
1
1
1
1
1
1
1
1
1
1
1
1
1
1
1
1
1
1
1
1
1
1
1
1
1
1
1
1
1
1
1
1
1
1
1.54148e-321
1.45255e-321
1.36362e-321
1.26481e-321
1.17588e-321
2.17389e-321
1.76681e-306
1.37527e-273
1.5821e-244
1.24432e-218
2.38582e-195
2.19599e-174
1.63231e-155
1.52949e-138
2.62396e-123
1.13282e-109
1.68599e-97
1.10936e-86
4.22095e-77
1.18584e-68
3.31705e-61
1.10728e-54
2.27866e-49
1.24619e-46
2.55611e-44
2.84697e-42
1.22453e-22
1.30017e-21
6.54156e-21
1.22242e-20
1.40315e-321
1.3241e-321
1.24505e-321
1.16599e-321
1.08694e-321
1.00789e-321
9.38725e-322
1.73911e-321
5.36086e-315
9.43184e-282
4.92671e-252
3.67197e-225
6.29057e-201
3.92432e-179
1.41907e-159
4.6901e-142
2.18645e-126
2.03151e-112
5.44511e-100
5.73763e-89
3.43855e-79
1.48062e-70
1.24606e-63
1.17159e-60
4.17853e-58
8.36082e-56
6.38894e-22
6.21566e-21
2.75221e-20
4.90939e-20
1.36362e-321
1.28457e-321
1.20552e-321
1.12647e-321
1.04742e-321
9.7825e-322
9.09081e-322
8.39912e-322
8.19016e-317
4.84268e-315
2.23573e-286
1.9985e-257
3.88292e-231
2.40664e-207
1.14013e-185
5.351e-166
3.41027e-148
3.74899e-132
9.68736e-118
7.67232e-105
2.64696e-93
4.8454e-83
7.19067e-75
8.91279e-72
4.48169e-69
1.32104e-66
5.93574e-21
5.13787e-20
2.00777e-19
3.50161e-19
1.36362e-321
1.28457e-321
1.20552e-321
1.12647e-321
1.04742e-321
9.68369e-322
8.99199e-322
8.3003e-322
4.29581e-318
4.93026e-316
1.46774e-287
4.02202e-259
9.035e-244
8.82165e-220
8.88674e-198
1.20332e-177
1.97849e-159
7.27441e-143
8.03331e-128
3.27511e-114
6.65737e-102
7.67821e-91
4.82408e-82
5.11343e-79
2.49513e-76
9.0755e-74
9.43348e-20
6.99742e-19
2.37178e-18
4.01957e-18
1.36362e-321
1.28457e-321
1.20552e-321
1.12647e-321
1.04742e-321
9.68369e-322
8.99199e-322
8.3003e-322
2.55768e-319
5.72013e-317
1.47513e-288
2.85423e-260
2.0786e-244
1.26963e-220
6.18979e-199
4.66204e-180
6.40749e-163
2.33305e-146
2.53168e-131
1.10925e-117
2.71765e-105
5.22745e-94
3.62328e-85
2.13967e-82
6.58217e-80
4.87881e-77
2.79293e-18
1.66614e-17
4.73203e-17
7.70334e-17
1.36362e-321
1.28457e-321
1.20552e-321
1.12647e-321
1.04742e-321
9.68369e-322
8.99199e-322
8.3003e-322
1.61263e-320
8.27822e-318
2.14674e-289
3.25824e-261
-1.16023e-243
-9.91393e-220
-3.01021e-198
-7.72573e-179
-1.21713e-161
3.55594e-145
3.31962e-130
8.56988e-117
1.04872e-104
6.63669e-94
1.91732e-85
6.18502e-83
1.57873e-80
1.4865e-77
1.94451e-16
8.3288e-16
1.86989e-15
2.72461e-15
1.24505e-321
1.16599e-321
1.08694e-321
1.02766e-321
9.48606e-322
8.79437e-322
8.10268e-322
7.5098e-322
1.38338e-321
-3.84615e-311
-3.25199e-281
-7.4307e-254
-4.11984e-229
-8.98508e-207
-9.10964e-187
-9.60359e-169
-1.69273e-152
-5.298e-138
-4.77139e-125
-1.37425e-113
1.70165e-102
1.54342e-91
1.92517e-83
3.6524e-81
3.50155e-79
7.08337e-77
2.51737e-14
2.75935e-14
2.69746e-14
2.77237e-14
3.00392e-321
2.78653e-321
2.57902e-321
2.3814e-321
2.19365e-321
2.01579e-321
3.69561e-321
-3.37941e-321
-4.04263e-300
-8.82959e-275
-1.91321e-251
-1.02949e-229
-1.29199e-209
-4.46454e-191
-3.98632e-174
-1.51622e-158
-3.22865e-144
-3.15873e-131
-2.10953e-119
-1.30375e-108
-7.89803e-99
-2.85804e-90
5.15538e-83
5.15739e-83
5.62393e-83
-1.74401e-12
-4.65192e-12
1.10905e-13
1.53223e-13
1.68075e-13
7.1936e-321
6.52167e-321
5.89914e-321
5.35567e-321
9.74297e-321
8.8833e-321
-8.10268e-321
-7.45299e-307
-6.58722e-284
-5.42446e-262
-3.01752e-241
-1.26045e-221
-3.79572e-203
-7.87952e-186
-8.70143e-170
-7.18695e-155
-5.27066e-141
-2.23173e-128
-9.18891e-117
-5.5284e-106
-3.36903e-96
-5.55269e-87
-3.45061e-79
-4.84744e-10
-1.83789e-09
-3.92632e-09
-5.87135e-09
5.30774e-10
8.5939e-10
9.31931e-10
8.25799e-229
1.40162e-229
2.71479e-230
5.61745e-231
1.16499e-231
2.35399e-232
4.54115e-233
8.22154e-234
1.40662e-234
2.33855e-235
7.89296e-245
-8.08704e-219
-8.13128e-201
-7.5289e-184
-4.70986e-168
-2.70809e-153
-1.56132e-139
-5.4244e-127
-1.98796e-115
-1.20275e-104
-7.4962e-95
0.000435895
0.00201342
0.00487445
0.0089557
0.0143786
0.0203006
0.026643
0.0326461
0.0426612
0.995259
0.990024
0.984478
0.979105
0.973733
0.968271
0.96264
0.956711
0.950377
0.94379
0.937227
0.930491
0.92336
0.915866
0.908289
0.901193
0.894791
0.889225
0.884685
0.881176
0.880045
0.880926
0.882831
0.885584
0.889054
0.893301
0.897647
0.902076
0.906099
0.912499
1
1
1
1
1
1
1
1
1
1
1
1
1
1
1
1
1
1
1
1
1
1
1
1
1
1
1
1
1
1
1
1
1
1
1
1
1
1
1
1
1
1
1
1
1
1
1
1
1
1
1
1
1
1
1
1
1
1
1
1
1
1
1
1
1
1
1
1
1
1
1
1
1
1
1
1
1
1
1
1
1
1
1
1
1
1
1
1
1
1
1
1
1
1
1
1
1
1
1
1
1
1
1
1
1
1
1
1
1
1
1
1
1
1
1
1
1
1
1
1
1
1
1
1
1
1
1
1
1
1
1
1
1
1
1
1
1
1
1
1
1
1
1
1
1
1
1
1
1
1
1
1
1
1
1
1
1
1
1
1
1
1
1
1
1
1
1
1
1
1
1
1
1
1
1
1
1
1
1
1
1
1
1
1
1
1
1
1
1
1
1
1
1
1
1
1
1
1
1
1
1
1
1
1
1
1
1
1
1
1
1
1
1
1
1
1
1
1
1
1
1
1
1
1
1
1
1
1
1
1
1
1
1
1
1
1
1
1
1
1
1
1
1
1
1
1
1
1
1
1
1
1
1
1
1
1
1
1
1
1
1
1
1
1
1
1
1
1
1
1
)
;

boundaryField
{
    walls
    {
        type            zeroGradient;
    }
    topInlet
    {
        type            fixedValue;
        value           uniform 1;
    }
    bottomInlet
    {
        type            fixedValue;
        value           uniform 0;
    }
    outlet
    {
        type            inletOutlet;
        inletValue      uniform 0;
        value           nonuniform List<scalar> 
20
(
1.22242e-20
4.90939e-20
3.50161e-19
4.01957e-18
7.70334e-17
2.72461e-15
2.77237e-14
1.68075e-13
9.31931e-10
0.0426612
0.912499
1
1
1
1
1
1
1
1
1
)
;
    }
    frontBack
    {
        type            empty;
    }
}


// ************************************************************************* //
