/*--------------------------------*- C++ -*----------------------------------*\
| =========                 |                                                 |
| \\      /  F ield         | OpenFOAM: The Open Source CFD Toolbox           |
|  \\    /   O peration     | Version:  4.x                                   |
|   \\  /    A nd           | Web:      www.OpenFOAM.org                      |
|    \\/     M anipulation  |                                                 |
\*---------------------------------------------------------------------------*/
FoamFile
{
    version     2.0;
    format      ascii;
    class       surfaceScalarField;
    location    "0.05";
    object      alphaPhi;
}
// * * * * * * * * * * * * * * * * * * * * * * * * * * * * * * * * * * * * * //

dimensions      [0 3 -1 0 0 0 0];

internalField   nonuniform List<scalar> 
1530
(
0
0
0
0
0
0
0
0
1.31812e-174
1.17565e-176
9.41393e-162
4.34825e-164
4.34394e-153
1.43485e-156
1.01753e-119
-1.28538e-130
4.28972e-110
-7.16552e-121
-6.57638e-113
2.92745e-102
0
0
0
0
0
0
0
0
8.82236e-176
1.27989e-177
2.93081e-163
3.2603e-165
8.9074e-156
7.29751e-158
4.22992e-128
2.42588e-130
1.15728e-118
3.46248e-121
2.85482e-114
6.83369e-111
0
0
0
0
0
0
0
0
8.45886e-177
1.27737e-178
1.90207e-164
2.26274e-166
3.85346e-157
3.50639e-159
6.23721e-129
4.12361e-131
7.94567e-120
3.20316e-122
7.66482e-116
5.79197e-113
0
0
0
0
0
0
0
0
8.44601e-178
1.21482e-179
1.30956e-165
1.46198e-167
1.82405e-158
1.53305e-160
8.84466e-130
5.37892e-132
6.06443e-121
2.54922e-123
3.47021e-117
1.27126e-114
0
0
0
0
0
0
0
0
8.19779e-179
1.1053e-180
8.59896e-167
8.94893e-169
8.08417e-160
6.31159e-162
1.10823e-130
6.31273e-133
4.61538e-122
2.02637e-124
2.19358e-118
5.32209e-116
0
0
0
0
0
0
0
0
7.65201e-180
9.68067e-182
5.37431e-168
5.34221e-170
3.39209e-161
2.55559e-163
1.231e-131
6.81932e-134
3.47507e-123
1.73515e-125
2.45659e-119
3.11822e-117
0
0
0
0
0
0
0
0
7.34511e-181
1.07359e-182
3.52214e-169
4.77525e-171
1.52524e-162
1.87153e-164
1.81094e-132
1.96077e-134
4.24725e-124
4.66022e-126
1.02341e-119
4.8161e-118
0
0
0
0
0
0
0
0
9.91315e-181
9.04134e-182
1.61524e-168
1.44726e-169
1.86176e-160
1.60634e-161
1.50219e-127
1.19652e-128
6.95786e-119
4.66992e-120
4.57613e-113
5.30679e-112
0
0
0
0
0
0
0
0
3.5601e-171
1.70567e-171
4.11636e-158
1.9211e-158
1.04118e-149
4.74258e-150
7.1845e-117
3.11578e-117
2.92729e-108
1.02638e-108
7.05006e-102
4.0967e-101
0
0
0
0
8.885e-170
2.41147e-156
9.55825e-148
1.13958e-114
6.97914e-105
7.45262e-92
7.04472e-05
-0.000158745
4.49237e-05
-0.000134879
3.40074e-05
-0.000103928
2.82086e-05
-8.5069e-05
2.46696e-05
-7.38607e-05
2.21416e-05
-6.64052e-05
2.00319e-05
-6.01053e-05
1.80298e-05
-5.30753e-05
1.61e-05
-4.07678e-05
-2.33871e-05
4.19755e-05
0.000279032
-6.75452e-05
0.000223887
-7.97336e-05
0.000189918
-6.99597e-05
0.000167711
-6.28612e-05
0.000152412
-5.85625e-05
0.000140628
-5.46205e-05
0.000130475
-4.9953e-05
0.000121286
-4.38861e-05
0.000116088
-3.55696e-05
-4.51515e-05
0.000137852
0.000778392
-4.68826e-05
0.00074094
-4.22811e-05
0.000706506
-3.55261e-05
0.00067149
-2.78448e-05
0.000637393
-2.44655e-05
0.000605347
-2.25748e-05
0.000575654
-2.02592e-05
0.000549465
-1.76977e-05
0.000531818
-1.79226e-05
-3.5087e-05
0.000521754
0.00173007
-5.05507e-05
0.00172577
-3.79839e-05
0.00172187
-3.16285e-05
0.00171837
-2.43441e-05
0.00171258
-1.8676e-05
0.00170445
-1.44445e-05
0.00169488
-1.06825e-05
0.00168476
-7.57689e-06
0.00167363
-6.79982e-06
-1.14492e-05
0.00165
0.00154247
-5.2528e-05
0.00154413
-3.964e-05
0.00154475
-3.22553e-05
0.00154622
-2.58085e-05
0.00154755
-2.00126e-05
0.00154831
-1.52036e-05
0.00154877
-1.11383e-05
0.00154904
-7.8474e-06
0.00154808
-5.84207e-06
-5.5298e-06
0.00154216
0.001545
-5.36942e-05
0.00154658
-4.12154e-05
0.00154749
-3.31676e-05
0.00154877
-2.70904e-05
0.00155023
-2.14686e-05
0.00155145
-1.6429e-05
0.00155242
-1.21014e-05
0.00155302
-8.452e-06
0.00155273
-5.55565e-06
-3.41687e-06
0.00155062
0.00154775
-5.4672e-05
0.00154885
-4.23089e-05
0.00154953
-3.38467e-05
0.00155043
-2.79939e-05
0.00155155
-2.25917e-05
0.0015527
-1.75738e-05
0.00155378
-1.31843e-05
0.00155456
-9.2294e-06
0.00155408
-5.07911e-06
-1.16609e-06
0.00155183
0.00155061
-5.59049e-05
0.00155057
-4.22686e-05
0.00154995
-3.32261e-05
0.00154903
-2.70769e-05
0.00154763
-2.11856e-05
0.00154596
-1.59121e-05
0.00154422
-1.14364e-05
0.00154245
-7.46378e-06
0.00154075
-3.37403e-06
3.4699e-07
0.00153923
0.00154854
-5.32494e-05
0.00154115
-3.48779e-05
0.00153349
-2.55732e-05
0.00152472
-1.82993e-05
0.00151424
-1.07071e-05
0.00150317
-4.84505e-06
0.00149105
6.80742e-07
0.0014779
5.68868e-06
0.00146428
1.02496e-05
1.49897e-05
0.00144964
0.00147754
0.00142081
0.00137308
0.00133048
0.00129292
0.00125935
0.00122984
0.00120424
0.00118256
0.00116695
1.38511e-101
2.77207e-103
8.29122e-101
1.55022e-102
2.29141e-78
3.75147e-80
1.05616e-70
1.23999e-72
6.09879e-64
4.04518e-66
8.61078e-54
3.13527e-57
4.20795e-48
-1.13026e-57
1.51799e-43
-3.54925e-52
1.16396e-39
-2.70926e-47
2.75266e-36
-4.55025e-43
2.50417e-33
-2.29117e-39
1.00584e-30
-4.37819e-36
1.97384e-28
-3.63479e-33
2.06506e-26
-1.44595e-30
1.23172e-24
-2.95861e-28
4.42369e-23
-3.29434e-26
9.97401e-22
-2.10523e-24
1.46381e-20
-8.04188e-23
1.44414e-19
-1.88751e-21
9.71009e-19
-2.49527e-20
4.86524e-18
-1.83556e-19
2.19774e-17
-2.60709e-18
1.03647e-16
-4.38784e-17
1.40564e-15
-1.02205e-15
6.83647e-15
-7.00458e-15
1.11635e-14
-6.5874e-15
1.01555e-14
-4.16126e-15
8.35199e-15
-1.26247e-15
2.79704e-15
-9.1781e-16
-8.07689e-17
6.17914e-103
1.63795e-104
6.14708e-102
1.61605e-103
1.59602e-79
3.96841e-81
5.07309e-72
1.12459e-73
1.60244e-65
3.01692e-67
1.21002e-56
1.83815e-58
2.15053e-55
2.43648e-57
3.19266e-50
2.30581e-52
1.57553e-45
3.56986e-48
1.96481e-41
-8.3094e-47
7.98534e-38
-1.45967e-42
1.27793e-34
-6.49523e-39
9.05476e-32
-1.13561e-35
3.10879e-29
-9.18559e-33
5.52739e-27
-3.79527e-30
5.36789e-25
-8.33867e-28
3.00242e-23
-1.02447e-25
1.00316e-21
-7.21724e-24
2.07929e-20
-2.92094e-22
2.72534e-19
-6.67904e-21
2.45886e-18
-1.3142e-19
1.64599e-17
-3.37299e-18
7.74523e-17
-5.07445e-17
1.28832e-15
-7.63705e-16
3.70982e-15
-6.19956e-15
2.80697e-15
-1.71955e-15
3.78697e-15
-5.91866e-16
2.08239e-15
-1.91163e-16
4.81881e-16
-5.33579e-17
-3.2048e-18
3.35678e-104
9.42248e-106
4.88268e-103
1.36144e-104
1.32348e-80
3.53994e-82
3.56921e-73
8.75306e-75
9.17121e-67
1.9883e-68
5.37624e-58
1.00259e-59
1.91584e-56
2.97972e-58
1.91719e-51
2.37632e-53
2.9547e-47
2.70083e-49
3.55143e-44
2.12057e-46
2.2913e-40
8.23034e-43
6.2833e-37
7.5627e-40
7.92167e-34
-1.56854e-37
4.93795e-31
-3.31298e-34
1.6353e-28
-2.30864e-31
2.95414e-26
-7.9234e-29
3.02995e-24
-1.44194e-26
1.79876e-22
-1.49299e-24
6.4034e-21
-8.82214e-23
1.38524e-19
-3.34965e-21
1.9336e-18
-1.34681e-19
1.6751e-17
-4.26275e-18
8.05003e-17
-6.61206e-17
8.93183e-16
-5.5103e-16
3.74527e-15
-1.00241e-14
6.43279e-16
-3.22092e-15
4.74255e-16
-1.40212e-17
2.51303e-16
-1.29043e-17
4.54898e-17
-9.4318e-19
-1.6333e-20
1.90299e-105
5.47246e-107
3.84103e-104
1.10356e-105
1.13619e-81
3.08706e-83
2.66218e-74
6.55022e-76
5.76201e-68
1.24817e-69
2.77972e-59
5.18985e-61
1.91426e-57
3.01407e-59
1.62681e-52
2.10897e-54
2.1444e-48
2.2171e-50
9.42444e-45
7.59296e-47
5.15769e-41
3.27935e-43
1.16596e-37
5.81998e-40
1.37428e-34
5.17362e-37
9.30791e-32
2.40134e-34
3.73617e-29
5.19547e-32
8.6699e-27
5.76197e-31
1.16312e-24
-1.27395e-27
9.21965e-23
-2.91567e-25
4.39986e-21
-2.765e-23
1.27333e-19
-2.17261e-21
2.30324e-18
-1.73055e-19
2.19669e-17
-6.24969e-18
2.12492e-16
-3.08248e-16
4.19536e-15
-4.59377e-15
4.93089e-14
-5.73316e-14
2.49655e-15
-5.65118e-15
6.72171e-18
-3.86978e-17
1.23427e-17
-3.01059e-19
9.95678e-19
2.12434e-19
6.1969e-21
1.1008e-106
3.28746e-108
3.0487e-105
8.99875e-107
9.90069e-83
2.6903e-84
1.98963e-75
4.78686e-77
3.60653e-69
7.56714e-71
1.43187e-60
2.58282e-62
2.47859e-58
3.78988e-60
2.48581e-53
3.18955e-55
6.54326e-49
6.97095e-51
7.3841e-45
6.508e-47
3.69358e-41
2.77145e-43
5.78962e-38
3.81807e-40
2.45024e-35
1.45206e-37
6.84527e-35
3.70922e-37
9.56725e-30
4.79548e-32
4.81955e-27
2.22642e-29
9.15314e-25
3.87813e-27
9.19225e-23
3.38768e-25
5.25977e-21
1.41879e-23
1.81908e-19
-7.95225e-22
3.86709e-18
-2.46834e-19
4.31142e-17
-1.63057e-17
1.3323e-15
-1.58042e-15
7.81636e-14
-8.05605e-14
6.7372e-13
-7.42266e-13
2.9663e-14
7.01114e-16
9.7181e-18
-1.09585e-15
2.01597e-19
-8.89882e-20
1.17514e-20
1.17486e-20
1.29362e-22
6.60123e-108
2.12792e-109
2.49853e-106
7.83183e-108
8.76401e-84
2.42962e-85
1.47847e-76
3.55921e-78
2.22253e-70
4.66274e-72
7.25423e-62
1.31959e-63
2.12976e-58
3.3561e-60
3.5131e-53
4.82764e-55
9.4858e-49
1.14636e-50
4.79045e-47
5.16411e-49
-6.27289e-41
-6.22316e-43
-5.86584e-37
-5.52347e-39
-1.26375e-33
-1.15217e-35
-9.80476e-31
-8.75475e-33
-2.29999e-28
-2.02323e-30
-2.31638e-26
-2.00625e-28
-7.70194e-25
-6.55679e-27
6.45135e-23
5.3159e-25
7.05913e-21
5.36228e-23
3.20927e-19
1.2844e-21
8.44024e-18
-3.73116e-20
3.99426e-16
-4.06472e-16
6.46397e-14
-6.67516e-14
2.14197e-12
-2.12351e-12
1.11654e-11
-1.19579e-11
4.23546e-13
2.45324e-16
1.31404e-16
-5.49835e-14
6.07669e-20
-4.92496e-19
8.09376e-22
1.01389e-21
5.79984e-24
4.46101e-109
1.64536e-110
2.44216e-107
8.41305e-109
9.1523e-85
2.6279e-86
1.26463e-77
3.13183e-79
1.57045e-71
3.40614e-73
-8.03584e-63
-1.53501e-64
1.04466e-57
1.7808e-59
2.08843e-52
3.21948e-54
-2.71248e-46
-3.81665e-48
-6.21357e-42
-8.03799e-44
-3.19247e-38
-3.83485e-40
-1.05965e-34
-1.19332e-36
-1.3457e-31
-1.42746e-33
-7.07611e-29
-7.06834e-31
-1.22268e-26
-1.14615e-28
-1.08535e-24
-9.48881e-27
-5.63172e-23
-4.57335e-25
-1.12066e-21
-8.37574e-24
-1.07022e-20
-7.14048e-23
-4.6069e-20
-2.0996e-22
7.45215e-18
2.39909e-21
2.64343e-14
-2.68197e-14
4.48351e-12
-4.5445e-12
9.01594e-11
-9.02765e-11
3.03382e-10
-3.15547e-10
9.0566e-12
-6.27143e-12
2.55829e-15
-4.01329e-12
5.24077e-19
-1.5685e-16
2.03472e-21
1.11061e-21
3.79047e-24
5.53304e-110
5.70001e-111
6.49471e-106
4.92213e-107
8.12364e-76
4.57445e-77
7.51924e-70
3.35454e-71
4.31359e-65
1.55642e-66
-3.35053e-53
-1.00127e-54
-2.66003e-49
-6.75242e-51
-7.93978e-46
-1.74786e-47
-5.9024e-41
-1.14431e-42
-1.82163e-37
-3.14453e-39
-1.81394e-34
-2.8222e-36
-1.33086e-31
-1.89404e-33
-5.49523e-29
-7.23035e-31
-1.23624e-26
-1.50768e-28
-1.16708e-24
-1.31409e-26
-6.73138e-23
-6.93474e-25
-2.75388e-21
-2.58461e-23
-4.52309e-20
-3.83159e-22
-4.44582e-19
-3.30203e-21
-2.99216e-18
-1.53287e-20
-3.02505e-19
2.903e-18
7.36049e-12
-7.76459e-12
6.04099e-10
-6.04402e-10
5.46586e-09
-5.32694e-09
8.59034e-09
-7.08536e-09
5.11235e-11
6.85996e-09
2.55824e-14
-9.41232e-11
7.19676e-17
-7.42728e-15
2.52941e-19
1.59338e-19
3.95123e-22
1.02373e-100
1.61364e-101
4.17825e-97
3.39251e-98
4.00448e-67
2.21257e-68
1.59501e-63
6.58216e-65
2.53263e-60
8.13506e-62
-1.02656e-50
-2.67899e-52
-2.40865e-44
-5.30282e-46
-3.85313e-41
-7.37471e-43
-8.95462e-38
-1.52297e-39
-8.13952e-35
-1.24385e-36
-3.3936e-32
-4.71453e-34
-1.02412e-29
-1.32125e-31
-2.28202e-27
-2.78054e-29
-3.47579e-25
-4.00431e-27
-2.59288e-23
-2.79004e-25
-1.34547e-21
-1.32281e-23
-5.8113e-20
-5.17248e-22
-9.37889e-19
-7.43507e-21
-1.28362e-17
-8.77695e-20
-1.94527e-16
-9.2722e-19
-4.74074e-16
8.13384e-18
2.30904e-09
-2.31688e-09
5.48215e-08
-5.29741e-08
1.33136e-07
-8.17535e-08
2.81455e-07
-9.90127e-08
6.00424e-09
-9.45641e-08
6.17167e-14
-3.64396e-10
2.89436e-17
-6.88024e-14
3.62806e-18
2.91505e-18
1.24263e-20
1.91743e-92
6.43869e-92
4.71541e-93
1.44591e-92
5.50636e-69
1.66193e-68
1.61312e-65
4.96993e-65
1.92888e-62
6.20779e-62
-5.3211e-50
-3.71839e-52
-7.74577e-44
-5.55137e-46
-1.11287e-40
-8.33209e-43
-4.91605e-37
-3.85603e-39
-4.10505e-34
-3.26809e-36
-1.50473e-31
-1.19686e-33
-4.03446e-29
-3.30534e-31
-8.22708e-27
-7.08986e-29
-1.20098e-24
-1.06653e-26
-8.71865e-23
-7.60702e-25
-4.61271e-21
-3.70795e-23
-2.131e-19
-1.53947e-21
-3.47372e-18
-2.16736e-20
-5.15958e-17
-2.66081e-19
-8.82773e-16
-3.31091e-18
-2.36135e-15
-2.6853e-18
9.61288e-07
-4.68205e-07
8.2342e-06
-1.66095e-06
1.14298e-05
-8.45398e-07
2.67216e-06
1.16978e-06
3.04511e-11
1.15434e-09
7.40852e-14
-3.35771e-10
2.79442e-17
-4.07708e-14
6.46629e-18
7.50818e-18
4.15542e-20
6.75242e-05
-2.55487e-05
8.20952e-05
-1.4571e-05
9.25904e-05
-1.04952e-05
0.000100659
-8.06893e-06
0.000106959
-6.29957e-06
0.000111989
-5.02996e-06
0.000116082
-4.09291e-06
0.000119436
-3.35381e-06
0.000122187
-2.75175e-06
0.000124475
-2.28731e-06
0.000126406
-1.92711e-06
0.000128005
-1.59864e-06
0.000129291
-1.28612e-06
0.000130315
-1.02394e-06
0.000131158
-8.4377e-07
0.000131919
-7.60295e-07
0.000132626
-7.11428e-07
0.000133335
-6.98359e-07
0.000133997
-6.75837e-07
0.000134348
-4.26792e-07
0.000133444
8.58997e-07
0.00012782
4.9667e-06
0.000106289
1.4801e-05
4.09783e-05
3.09721e-05
1.38012e-06
1.64542e-05
1.85676e-10
2.93048e-09
2.55519e-14
-1.51169e-10
5.72974e-18
-3.59077e-14
3.90586e-18
2.24768e-18
2.11406e-20
0.000166567
-5.42634e-05
0.000192536
-4.05394e-05
0.000212582
-3.0542e-05
0.000228977
-2.4464e-05
0.000242589
-1.99109e-05
0.00025407
-1.65112e-05
0.000263945
-1.39679e-05
0.000272573
-1.19813e-05
0.000280199
-1.03778e-05
0.000287014
-9.10225e-06
0.000293177
-8.09078e-06
0.000298806
-7.22728e-06
0.000303975
-6.45489e-06
0.000308735
-5.7843e-06
0.000313127
-5.23584e-06
0.000317182
-4.81512e-06
0.000320921
-4.45065e-06
0.000324354
-4.13097e-06
0.00032742
-3.74178e-06
0.00032953
-2.5375e-06
0.000328044
2.34548e-06
0.000315523
1.74872e-05
0.000271402
5.17865e-05
0.000111968
0.00010884
2.45251e-06
5.70007e-05
2.81878e-10
2.99527e-07
5.78908e-16
1.30924e-10
2.48124e-17
-3.35164e-14
6.70872e-18
-2.71463e-18
7.33216e-21
0.000527871
-6.03804e-05
0.000543205
-5.58736e-05
0.000558778
-4.6115e-05
0.000573706
-3.93926e-05
0.000587938
-3.41426e-05
0.000601145
-2.97179e-05
0.000613338
-2.61614e-05
0.000624634
-2.32769e-05
0.000635126
-2.08704e-05
0.000644918
-1.88939e-05
0.000654127
-1.73e-05
0.000662822
-1.5922e-05
0.00067103
-1.46632e-05
0.000678775
-1.35292e-05
0.000686081
-1.2542e-05
0.000692965
-1.16985e-05
0.00069943
-1.09156e-05
0.000705452
-1.01531e-05
0.000710892
-9.1824e-06
0.000714574
-6.2187e-06
0.000711002
5.91669e-06
0.000684163
4.43268e-05
0.000602627
0.000133322
0.000275686
0.000274463
6.64582e-07
0.000147697
6.66042e-10
9.4828e-07
-3.00746e-14
8.55914e-10
8.55966e-17
-6.39185e-14
1.80153e-17
-5.60577e-17
-5.03734e-20
0.00163871
-4.90999e-05
0.00163034
-4.75004e-05
0.00162595
-4.17208e-05
0.00162249
-3.59384e-05
0.00161938
-3.10278e-05
0.00161625
-2.65923e-05
0.00161278
-2.26876e-05
0.00160889
-1.93861e-05
0.00160467
-1.66529e-05
0.00160035
-1.45767e-05
0.00159627
-1.32168e-05
0.00159266
-1.23109e-05
0.00158967
-1.16729e-05
0.00158741
-1.12678e-05
0.00158595
-1.10846e-05
0.00158531
-1.1056e-05
0.00158542
-1.10241e-05
0.00158611
-1.08479e-05
0.00158707
-1.0144e-05
0.00158603
-5.17625e-06
0.00157103
2.09141e-05
0.00150775
0.000107609
0.00133252
0.000308552
0.000696182
0.000618102
1.87523e-06
0.000373204
4.81568e-09
2.76848e-06
-6.25806e-13
5.86674e-09
2.86858e-16
-6.65818e-13
1.65799e-16
-1.0053e-15
-1.50547e-18
0.00153869
-4.56293e-05
0.00153611
-4.49173e-05
0.0015355
-4.11093e-05
0.00153568
-3.61234e-05
0.00153587
-3.12149e-05
0.00153579
-2.65175e-05
0.0015352
-2.20959e-05
0.00153388
-1.80645e-05
0.00153172
-1.44876e-05
0.00152872
-1.15799e-05
0.00152501
-9.50723e-06
0.00152066
-7.95973e-06
0.00151576
-6.77356e-06
0.00151039
-5.90336e-06
0.00150464
-5.33124e-06
0.00149855
-4.96309e-06
0.00149214
-4.61077e-06
0.00148534
-4.05561e-06
0.00147806
-2.86388e-06
0.00146847
4.41265e-06
0.00144678
4.26055e-05
0.00138341
0.000170977
0.00122559
0.000466371
0.000715343
0.000916086
1.75097e-06
0.000622016
1.52e-08
4.43035e-06
8.90309e-13
2.09818e-08
-8.63456e-15
6.46724e-14
5.21457e-17
-9.7524e-15
-2.96648e-17
0.00154889
-4.38929e-05
0.00154766
-4.3691e-05
0.00154762
-4.1066e-05
0.00154838
-3.68909e-05
0.00154934
-3.21726e-05
0.00155021
-2.7388e-05
0.00155079
-2.26695e-05
0.00155081
-1.80903e-05
0.00155014
-1.38194e-05
0.00154884
-1.02815e-05
0.00154696
-7.61836e-06
0.00154431
-5.31402e-06
0.00154076
-3.21982e-06
0.00153617
-1.31553e-06
0.00153038
4.52181e-07
0.00152322
2.2043e-06
0.00151443
4.17294e-06
0.00150386
6.52284e-06
0.00149169
9.29639e-06
0.00147736
1.87496e-05
0.00145413
6.58303e-05
0.0013957
0.000229411
0.00124907
0.000613003
0.000792658
0.00118313
1.12179e-05
0.000921509
5.26777e-08
8.38041e-06
6.73514e-11
7.01419e-08
-3.96711e-14
6.74164e-11
5.44687e-16
-5.49397e-14
-4.17976e-16
0.00155032
-4.23832e-05
0.00154844
-4.18098e-05
0.00154712
-3.97523e-05
0.00154626
-3.60302e-05
0.00154554
-3.14523e-05
0.00154477
-2.66127e-05
0.00154376
-2.16581e-05
0.00154217
-1.65035e-05
0.00153963
-1.1281e-05
0.00153602
-6.67383e-06
0.00153139
-2.98799e-06
0.00152537
7.05447e-07
0.00151778
4.37826e-06
0.00150832
8.13848e-06
0.00149681
1.19643e-05
0.00148304
1.59792e-05
0.00146678
2.04237e-05
0.0014479
2.54114e-05
0.0014269
3.02894e-05
0.0014072
3.84526e-05
0.00139042
8.26083e-05
0.0013552
0.000264631
0.00124323
0.000724978
0.000978662
0.00144769
3.4936e-05
0.00126138
1.41618e-07
1.52585e-05
1.10132e-09
2.0587e-07
8.00419e-12
1.11971e-09
2.24311e-14
7.74455e-12
1.38226e-14
0.00153416
-3.73138e-05
0.00152878
-3.64237e-05
0.00152281
-3.37861e-05
0.00151621
-2.94257e-05
0.00150919
-2.44387e-05
0.00150163
-1.90444e-05
0.00149349
-1.35246e-05
0.00148441
-7.41961e-06
0.00147385
-7.19187e-07
0.00146144
5.73199e-06
0.00144686
1.15898e-05
0.00143029
1.72767e-05
0.00141182
2.28458e-05
0.00139127
2.86926e-05
0.0013688
3.44289e-05
0.00134435
4.04357e-05
0.00131788
4.68921e-05
0.00128942
5.38729e-05
0.00126026
5.94468e-05
0.00123723
6.14815e-05
0.0012341
8.57362e-05
0.00124537
0.000253367
0.00120354
0.000766806
0.00102848
0.00162276
6.32162e-05
0.00161394
4.9529e-07
5.51845e-05
9.79517e-09
6.80006e-07
2.47448e-10
1.0436e-08
2.24689e-12
2.50006e-10
1.95463e-12
0.00143434
-2.20144e-05
0.00141777
-1.98582e-05
0.00140056
-1.65746e-05
0.001382
-1.08617e-05
0.00136309
-5.53411e-06
0.00134286
1.18605e-06
0.00132066
8.6788e-06
0.00129683
1.64104e-05
0.00127213
2.3977e-05
0.00124686
3.1e-05
0.00122132
3.71359e-05
0.00119536
4.32289e-05
0.00116886
4.9347e-05
0.00114186
5.56932e-05
0.00111404
6.22538e-05
0.0010853
6.91696e-05
0.00105562
7.65752e-05
0.00102481
8.46848e-05
0.000991761
9.24947e-05
0.000962715
9.05271e-05
0.000973388
7.50632e-05
0.00105646
0.000170298
0.00115832
0.000664945
0.0011462
0.00162707
0.000299214
0.00181208
1.93695e-05
0.000334398
9.52194e-07
1.90702e-05
3.28773e-08
9.28717e-07
6.63043e-10
3.24336e-08
6.57845e-10
0.00113565
0.00110497
0.00107379
0.00104378
0.00101466
0.000987548
0.000962939
0.00094049
0.000919491
0.000899013
0.000878079
0.000856309
0.000833393
0.000809198
0.000783648
0.000756812
0.000728926
0.000700174
0.000667214
0.0006262
0.00062063
0.000775642
0.00117598
0.00163796
0.00142271
0.000612776
0.000257557
8.20085e-05
2.36215e-06
)
;

boundaryField
{
    walls
    {
        type            calculated;
        value           nonuniform List<scalar> 
100
(
0
0
0
0
2.74023e-169
7.37684e-156
2.91745e-147
3.42809e-114
1.83753e-104
-3.10306e-93
0
0
0
0
2.62506e-176
2.06393e-163
1.02739e-154
2.5497e-121
1.11743e-111
7.38854e-104
1.03848e-103
7.45973e-103
2.89763e-80
1.81318e-72
1.34768e-65
2.35927e-55
1.39446e-49
6.01517e-45
5.46916e-41
1.51767e-37
1.59881e-34
7.37719e-32
1.65508e-29
1.97259e-27
1.33647e-25
5.44219e-24
1.38752e-22
2.30408e-21
2.6433e-20
1.99092e-19
6.10713e-19
3.54708e-19
2.2625e-17
7.36147e-16
5.11591e-15
9.72687e-15
7.0904e-15
5.21491e-15
4.51391e-15
7.36551e-16
9.28154e-06
1.08259e-05
1.46059e-05
1.91415e-05
2.35899e-05
2.82983e-05
3.32884e-05
3.88594e-05
4.49758e-05
5.1478e-05
5.80694e-05
6.49987e-05
7.22634e-05
7.98887e-05
8.7803e-05
9.60057e-05
0.000104462
0.000113437
0.000125455
0.000131541
8.06333e-05
1.52861e-05
0.000264607
0.00116508
0.001809
0.000932079
0.000286687
0.000109799
3.58999e-05
4.66446e-07
0.000262544
0.000160403
0.000114844
9.08679e-05
7.73997e-05
6.89331e-05
6.2215e-05
5.50775e-05
4.26975e-05
-2.48841e-06
2.22536e-05
2.18564e-05
2.2155e-05
2.42974e-05
2.68568e-05
2.87217e-05
3.01919e-05
3.12937e-05
3.1925e-05
3.06025e-05
)
;
    }
    topInlet
    {
        type            calculated;
        value           nonuniform List<scalar> 10(-0.000174246 -0.000370232 -0.000799055 -0.0017264 -0.00154049 -0.00154384 -0.00154677 -0.00154938 -0.00155119 -0.00155305);
    }
    bottomInlet
    {
        type            calculated;
        value           uniform 0;
    }
    outlet
    {
        type            calculated;
        value           nonuniform List<scalar> 
20
(
7.12008e-16
7.09337e-17
3.22849e-18
2.01885e-20
3.28411e-22
1.23512e-23
1.915e-23
1.33255e-21
2.58554e-20
4.79984e-20
3.06746e-20
5.11533e-20
1.18494e-19
1.14441e-18
5.46904e-18
1.11549e-16
1.79204e-15
1.20894e-13
4.21209e-12
4.09614e-07
)
;
    }
    frontBack
    {
        type            empty;
        value           nonuniform 0();
    }
}


// ************************************************************************* //
