/*--------------------------------*- C++ -*----------------------------------*\
| =========                 |                                                 |
| \\      /  F ield         | OpenFOAM: The Open Source CFD Toolbox           |
|  \\    /   O peration     | Version:  4.x                                   |
|   \\  /    A nd           | Web:      www.OpenFOAM.org                      |
|    \\/     M anipulation  |                                                 |
\*---------------------------------------------------------------------------*/
FoamFile
{
    version     2.0;
    format      ascii;
    class       volScalarField;
    location    "0.05";
    object      alpha.upper;
}
// * * * * * * * * * * * * * * * * * * * * * * * * * * * * * * * * * * * * * //

dimensions      [0 0 0 0 0 0 0];

internalField   nonuniform List<scalar> 
800
(
0
0
0
0
1.01756e-171
7.46027e-159
3.525e-150
8.43314e-117
3.62064e-107
2.5037e-99
0
0
0
0
5.82406e-173
1.94879e-160
5.96973e-153
2.85976e-125
7.89599e-116
4.70936e-108
0
0
0
0
5.46444e-174
1.23007e-161
2.49497e-154
4.04286e-126
5.15636e-117
3.76221e-110
0
0
0
0
5.44302e-175
8.43369e-163
1.17395e-155
5.68966e-127
3.90198e-118
8.19116e-112
0
0
0
0
5.28742e-176
5.54193e-164
5.207e-157
7.13531e-128
2.97215e-119
3.432e-113
0
0
0
0
4.9436e-177
3.4704e-165
2.18976e-158
7.94534e-129
2.24427e-120
2.02133e-114
0
0
0
0
4.28526e-178
2.0642e-166
8.9871e-160
1.07317e-129
2.53296e-121
2.91214e-115
0
0
0
0
1.54473e-177
2.64708e-165
3.20495e-157
2.70679e-124
1.29496e-115
1.00697e-108
0
0
0
0
2.3085e-167
2.89025e-154
7.87064e-146
5.83615e-113
2.484e-104
2.94059e-97
0
0
0
0
3.53656e-165
1.06869e-151
4.67666e-143
6.18711e-110
4.24424e-100
1.76708e-87
1
1
1
1
1
1
1
1
1
1
1
1
1
1
1
1
1
1
1
1
1
1
1
1
1
1
1
1
1
1
1
1
1
1
1
1
1
1
1
1
1
1
1
1
1
1
1
1
1
1
1
1
1
1
1
1
1
1
1
1
1
1
1
1
1
1
1
1
1
1
1
1
1
1
1
1
1
1
1
1
1
1
1
1
1
1
1
1
1
1
1
1
1
1
1
1
1
1
1
1
1.21721e-98
7.48793e-98
2.12946e-75
1.00988e-67
5.99912e-61
8.70522e-51
4.36441e-45
1.61267e-40
1.26521e-36
3.06088e-33
2.85113e-30
1.17439e-27
2.36802e-25
2.55144e-23
1.57113e-21
5.84038e-20
1.36637e-18
2.08593e-17
2.15735e-16
1.54421e-15
7.80426e-15
2.82246e-14
8.78439e-14
6.27081e-13
2.45625e-12
5.31296e-12
6.75748e-12
6.72171e-12
4.66635e-12
1.16713e-12
4.30362e-100
4.33139e-99
1.13842e-76
3.66669e-69
1.17428e-62
8.99945e-54
1.62597e-52
2.45818e-47
1.23668e-42
1.57373e-38
6.53119e-35
1.0681e-31
7.7408e-29
2.72104e-26
4.95896e-24
4.94303e-22
2.84195e-20
9.7774e-19
2.09317e-17
2.82485e-16
2.51947e-15
1.5535e-14
6.66042e-14
6.09016e-13
3.16927e-12
2.6389e-12
3.89091e-12
2.58804e-12
9.35153e-13
2.35934e-13
2.18754e-101
3.19302e-100
8.68833e-78
2.35318e-70
6.07477e-64
3.57907e-55
1.28246e-53
1.29116e-48
2.00418e-44
2.42896e-41
1.58272e-37
4.39029e-34
5.60762e-31
3.54703e-28
1.194e-25
2.19607e-23
2.2975e-21
1.39386e-19
5.07567e-18
1.11811e-16
1.56399e-15
1.34162e-14
6.65821e-14
1.95313e-13
1.71381e-12
6.15462e-13
8.40816e-13
5.76612e-13
1.89695e-13
2.34606e-14
1.22736e-102
2.48028e-101
7.34291e-79
1.72145e-71
3.72772e-65
1.7993e-56
1.23995e-54
1.05485e-49
1.39267e-45
6.13516e-42
3.36752e-38
7.64213e-35
9.05167e-32
6.16829e-29
2.49468e-26
5.84226e-24
7.92365e-22
6.36182e-20
3.08022e-18
9.03692e-17
1.65369e-15
1.61685e-14
7.49856e-14
1.33654e-13
2.53078e-12
4.67044e-14
1.62896e-14
6.34697e-14
1.10626e-14
4.74627e-16
7.10632e-104
1.96963e-102
6.39646e-80
1.28477e-72
2.32739e-66
9.23504e-58
1.59799e-55
1.60255e-50
4.21994e-46
4.76615e-42
2.38695e-38
3.74773e-35
1.5896e-32
4.45371e-32
6.24744e-27
3.16151e-24
6.03805e-22
6.10543e-20
3.52129e-18
1.22938e-16
2.65436e-15
2.6987e-14
6.42275e-14
4.86235e-13
3.92658e-11
5.50528e-14
4.37958e-15
3.14028e-15
2.81775e-16
8.35941e-18
4.28847e-105
1.62579e-103
5.70469e-81
9.62204e-74
1.44619e-67
4.72025e-59
1.38625e-55
2.28844e-50
6.18718e-46
3.13041e-44
-4.10863e-38
-3.85249e-34
-8.32562e-31
-6.48151e-28
-1.52606e-25
-1.54304e-23
-5.1522e-22
4.33509e-20
4.76663e-18
2.18108e-16
5.82141e-15
2.79988e-14
-2.82504e-13
2.14053e-11
5.73929e-10
1.49328e-12
5.64592e-15
2.26607e-15
2.85706e-17
4.1437e-19
2.71544e-106
1.49396e-104
5.61332e-82
7.77206e-75
9.66924e-69
-4.95685e-60
6.45734e-55
1.29394e-49
-1.68489e-43
-3.86992e-39
-1.99341e-35
-6.63168e-32
-8.43817e-29
-4.44373e-26
-7.68626e-24
-6.8268e-22
-3.54275e-20
-7.04805e-19
-6.72812e-18
-2.89868e-17
1.56296e-15
3.57254e-14
-8.89505e-12
1.10153e-09
1.0877e-08
1.55375e-10
3.50804e-14
7.16662e-15
6.72951e-17
5.18633e-19
1.03865e-106
1.18617e-102
1.44378e-72
1.30268e-66
7.29744e-62
-5.54699e-50
-4.31846e-46
-1.26622e-42
-9.26096e-38
-2.81574e-34
-2.76525e-31
-2.00276e-28
-8.17037e-26
-1.81748e-23
-1.69791e-21
-9.69782e-20
-3.9316e-18
-6.4035e-17
-6.24699e-16
-4.18335e-15
-4.25093e-16
-2.62936e-10
3.89594e-10
4.49445e-08
3.04983e-07
4.17345e-08
2.82705e-08
5.37643e-14
1.93538e-14
8.47819e-17
6.10261e-97
2.15891e-93
1.87628e-63
6.94392e-60
1.04132e-56
-4.03172e-47
-9.10869e-41
-1.41134e-37
-3.19127e-34
-2.83238e-31
-1.15624e-28
-3.42401e-26
-7.50068e-24
-1.12493e-21
-8.27481e-20
-4.23936e-18
-1.80985e-16
-2.89023e-15
-3.91886e-14
-5.90113e-13
-1.44466e-12
-6.04891e-11
2.69117e-07
4.17692e-06
0.00269904
0.000924024
4.91375e-06
4.30872e-13
1.23907e-13
3.63703e-15
1.76211e-96
1.08111e-93
1.77767e-73
2.91659e-65
4.6031e-67
-4.58512e-46
-6.40115e-40
-8.88215e-37
-3.80932e-33
-3.10071e-30
-1.11139e-27
-2.92102e-25
-5.85083e-23
-8.40409e-21
-6.01241e-19
-3.13897e-17
-1.43276e-15
-2.31015e-14
-3.39839e-13
-5.77646e-12
-1.55224e-11
0.0032134
0.0376659
0.12582
0.0891714
0.0080045
2.38965e-09
1.48083e-12
2.74519e-13
1.46466e-14
0.995258
0.990024
0.984477
0.979104
0.973732
0.96827
0.962638
0.956709
0.950375
0.943788
0.937223
0.930488
0.923355
0.915862
0.908279
0.901198
0.894759
0.889248
0.884811
0.880588
0.878355
0.876125
0.851301
0.609428
0.145655
0.00261782
1.31446e-09
9.98982e-13
2.74975e-13
9.36213e-15
1
1
1
1
1
1
1
1
1
1
1
1
1
1
1
1
1
1
1
1
1
1
0.991737
0.755682
0.184964
0.00117502
1.26593e-11
-5.20046e-13
1.28505e-13
7.20135e-15
1
1
1
1
1
1
1
1
1
1
1
1
1
1
1
1
1
1
1
1
1
1
1
0.83821
0.214407
8.38009e-06
-8.40155e-09
3.11399e-13
6.4705e-14
7.55345e-15
1
1
1
1
1
1
1
1
1
1
1
1
1
1
1
1
1
1
1
1
1
1
1
0.91187
0.255003
1.40056e-05
-2.79754e-08
-5.80133e-13
4.98187e-14
3.11436e-14
1
1
1
1
1
1
1
1
1
1
1
1
1
1
1
1
1
1
1
1
1
1
1
0.96582
0.299423
2.6831e-05
1.87051e-08
4.61076e-11
1.41462e-13
6.71267e-14
1
1
1
1
1
1
1
1
1
1
1
1
1
1
1
1
1
1
1
1
1
1
1
0.990814
0.3406
0.000492657
4.88174e-08
1.76491e-11
1.5846e-12
2.00748e-13
1
1
1
1
1
1
1
1
1
1
1
1
1
1
1
1
1
1
1
1
1
1
1
1
0.410195
0.00241675
1.4498e-06
1.16817e-08
4.57533e-11
2.30575e-12
1
1
1
1
1
1
1
1
1
1
1
1
1
1
1
1
1
1
1
1
1
1
1
1
0.458119
0.00161676
5.38889e-06
9.80599e-08
1.00344e-09
4.66259e-11
1
1
1
1
1
1
1
1
1
1
1
1
1
1
1
1
1
1
1
1
1
1
1
1
0.52293
0.000537338
2.18899e-05
7.30176e-07
1.60631e-08
1.00342e-09
1
1
1
1
1
1
1
1
1
1
1
1
1
1
1
1
1
1
1
1
1
1
1
1
0.886711
0.517621
0.275039
0.139787
0.0346817
0.000161005
)
;

boundaryField
{
    walls
    {
        type            zeroGradient;
    }
    topInlet
    {
        type            fixedValue;
        value           uniform 1;
    }
    bottomInlet
    {
        type            fixedValue;
        value           uniform 0;
    }
    outlet
    {
        type            inletOutlet;
        inletValue      uniform 0;
        value           nonuniform List<scalar> 
20
(
1.16713e-12
2.35934e-13
2.34606e-14
4.74627e-16
8.35941e-18
4.1437e-19
5.18633e-19
8.47819e-17
3.63703e-15
1.46466e-14
9.36213e-15
7.20135e-15
7.55345e-15
3.11436e-14
6.71267e-14
2.00748e-13
2.30575e-12
4.66259e-11
1.00342e-09
0.000161005
)
;
    }
    frontBack
    {
        type            empty;
    }
}


// ************************************************************************* //
