/*--------------------------------*- C++ -*----------------------------------*\
| =========                 |                                                 |
| \\      /  F ield         | OpenFOAM: The Open Source CFD Toolbox           |
|  \\    /   O peration     | Version:  4.x                                   |
|   \\  /    A nd           | Web:      www.OpenFOAM.org                      |
|    \\/     M anipulation  |                                                 |
\*---------------------------------------------------------------------------*/
FoamFile
{
    version     2.0;
    format      ascii;
    class       volScalarField;
    location    "0.05";
    object      epsilon;
}
// * * * * * * * * * * * * * * * * * * * * * * * * * * * * * * * * * * * * * //

dimensions      [0 2 -3 0 0 0 0];

internalField   nonuniform List<scalar> 
800
(
3069.04
9326.78
16723.9
23561
28990.3
32829.5
35257.9
36489.4
36883.6
36789.7
183.931
571.177
1117.83
1719.9
2267.86
2726.07
3071.22
3365.93
3604.01
3785.65
24.7412
50.7738
92.3224
144.135
197.437
246.427
287.937
322.671
349.912
370.904
15.3126
17.0273
20.3338
25.1765
31.047
37.3235
43.4812
49.1753
54.0784
58.101
14.843
15.0323
15.5025
16.2336
17.1699
18.2382
19.3672
20.4962
21.5747
22.5872
18.4317
23.5935
28.5135
32.4679
35.3459
37.2752
38.4442
39.0245
39.1449
38.9326
153.615
244.113
270.448
262.666
242.279
219.636
198.663
180.342
164.393
149.398
6625.4
7180.49
6262.71
5410.89
4796.46
4353.75
4009.28
3713.92
3428.91
3038.39
256436
198127
136810
103098
84289.7
72468.9
63787.1
56479.3
49615.7
41188.8
3.28103e+06
1.86524e+06
1.11436e+06
783055
613181
509982
435090
372459
313931
248168
3.32499e+06
1.87461e+06
1.11661e+06
783937
613642
509915
434301
370890
311837
246766
262867
201627
138747
104435
85344.6
73324.7
64457.1
56966.7
49944.2
41466.4
6873.3
7421.08
6455.47
5569.32
4932.55
4473.59
4115.41
3807.21
3509.68
3106.73
160.544
253.44
278.747
269.121
247.161
223.42
201.734
182.958
166.712
151.503
18.6697
24.1131
29.2473
33.3312
36.2705
38.2141
39.3678
39.9148
39.991
39.7304
14.8597
15.0773
15.5871
16.3641
17.3479
18.4611
19.6296
20.7904
21.8926
22.9264
15.3561
17.1743
20.6358
25.6612
31.7188
38.1594
44.4497
50.2252
55.1505
59.2313
25.3227
52.6545
95.8844
149.334
204.101
254.133
296.567
331.825
359.475
381.377
193.006
598.741
1167.65
1789.09
2353.82
2821.64
3179.17
3486.89
3732.48
3917.45
3217.16
9767.62
17466.4
24534.3
30104
34007.3
36432.4
37622.1
37969.7
37836.6
36716.4
36262.5
35448.3
34356.1
33075.7
31685.5
30160.1
28643.9
27229.5
25952.9
24801.5
23731.3
22699.6
21675.9
20642.6
19593.8
18529.6
17464.6
16412.4
15129.1
13722.7
14818.3
22077.3
34584.2
47415.7
58532.2
58083.4
46572.5
33672.7
13368.1
4241.93
4533.01
4674.11
4674.53
4579.86
4420.18
4287.36
4170.56
4062.46
3955.3
3847.14
3739.72
3632.66
3524.52
3414
3300.41
3183.69
3064.6
2946.69
2829.61
2702.87
2522.97
2474.7
3009.71
4832.08
8709.73
9864.9
7994.88
5781.66
2080.64
464.134
546.694
610.721
651.657
670.918
672.601
663.991
650.246
633.889
622.703
619.704
622.401
628.646
636.89
646.431
656.754
667.628
678.958
691.856
705.863
681.974
536.842
356.73
288.791
432.357
1219.55
2195.93
2072.98
1206.97
295.668
71.3297
85.8407
99.92
111.82
120.497
125.695
127.769
127.361
125.165
122.164
119.498
117.664
117.315
118.812
121.998
126.78
133.08
141.01
150.806
160.904
158.012
122.393
75.7228
53.9918
80.4156
276.21
641.464
561.315
208.116
40.4634
24.6154
27.0864
29.8164
32.5364
34.9868
36.9622
38.3279
39.0269
39.0687
38.5438
37.6178
36.4547
35.2297
34.1156
33.2524
32.7494
32.7818
33.431
34.7809
36.5028
36.074
30.0773
21.9912
21.5388
37.4833
99.7275
188.797
113.773
33.542
7.92025
38.1986
37.2639
36.1559
34.8959
33.5148
32.0417
30.499
28.9055
27.2785
25.6363
24.0019
22.3969
20.8401
19.3499
17.9447
16.6446
15.4786
14.4776
13.6716
13.0224
12.1971
10.7517
10.1198
15.5099
28.6116
44.4138
48.3225
21.9798
7.78646
2.77545
126.771
103.045
82.6864
66.4304
53.833
44.1719
36.7604
31.0411
26.5858
23.0704
20.2516
17.9456
16.0127
14.3489
12.8793
11.5528
10.3392
9.22451
8.20532
7.27186
6.41541
5.78695
6.87561
14.3311
25.5389
21.5565
12.1284
5.52687
2.83113
1.83253
1628.05
827.038
434.635
240.507
140.725
87.0374
56.7746
38.9534
28.0266
21.0716
16.4867
13.3606
11.1553
9.54247
8.31622
7.34511
6.54473
5.86087
5.25849
4.71108
4.22547
4.02768
5.67551
13.8648
23.6148
14.3148
5.95331
3.12229
2.07782
1.71439
9568.07
2675.91
923.598
381.006
182.087
97.9545
57.9578
37.079
25.3394
18.3356
13.9518
11.0951
9.16458
7.81166
6.82526
6.07313
5.47069
4.96328
4.51525
4.10189
3.73392
3.64673
5.43146
13.658
22.3394
12.4881
4.91309
2.73579
1.95354
1.69974
21234.9
3891.51
1097.77
412.44
188.351
98.8226
57.5603
36.4258
24.6948
17.763
13.4582
10.6729
8.80389
7.50394
6.56372
5.85232
5.28587
4.8101
4.38947
3.99985
3.65307
3.58905
5.42394
13.6753
21.9011
12.0383
4.72383
2.66667
1.92841
1.6983
21133.7
3880.34
1095.62
411.785
188.077
98.6796
57.4717
36.3635
24.6471
17.7243
13.4258
10.6451
8.77959
7.48251
6.54487
5.83593
5.27183
4.79828
4.37971
3.992
3.64729
3.58729
5.43878
13.7017
21.7867
11.9436
4.69718
2.65685
1.92237
1.69823
9572.48
2668.94
919.898
379.268
181.198
97.434
57.6118
36.8252
25.1398
18.1715
13.8132
10.9756
9.05999
7.71942
6.74411
6.00257
5.41023
4.91239
4.47325
4.06818
3.70823
3.63031
5.43654
13.6064
21.879
12.2127
4.83445
2.70486
1.93027
1.69765
1654.63
835.935
437.28
241.002
140.509
86.614
56.3182
38.5204
27.6314
20.7152
16.1668
13.0736
10.8973
9.31066
8.1094
7.16309
6.38715
5.72703
5.14719
4.62113
4.15501
3.97078
5.60886
13.5558
22.636
13.7994
5.78416
3.05135
2.01513
1.70468
128.226
103.886
83.0934
66.5602
53.7954
44.0366
36.57
30.8204
26.3485
22.8247
20.0027
17.6964
15.7649
14.1044
12.6408
11.3246
10.1258
9.03041
8.03424
7.1266
6.29502
5.68116
6.72584
13.8266
24.2584
20.6577
11.5786
5.26207
2.62224
1.79073
38.9457
37.9511
36.7756
35.4425
33.9854
32.4364
30.8198
29.1558
27.4632
25.7636
24.0819
22.4394
20.8544
19.3444
17.9289
16.6311
15.4743
14.4854
13.6916
13.059
12.2357
10.7702
10.0614
15.119
27.451
43.0746
45.9178
19.9257
6.76122
2.54112
24.9914
27.4988
30.2533
32.977
35.4098
37.3483
38.6604
39.2888
39.2523
38.6661
37.697
36.5094
35.2929
34.2071
33.3988
33.0149
33.1267
33.8169
35.1736
36.8639
36.3883
30.3281
22.1322
21.3733
36.4963
97.6955
181.358
101.353
28.4538
6.76579
72.743
87.4841
101.685
113.571
122.152
127.208
129.119
128.488
126.052
123.052
120.455
118.843
119.032
120.858
124.185
128.915
135.088
142.831
152.374
162.155
158.993
123.316
76.6149
54.6421
79.8766
271.465
621.404
517.66
177.265
33.7099
476.624
560.32
624.519
664.765
683.283
684.387
675.481
660.89
643.763
635.126
633.56
636.72
642.463
649.922
658.513
667.881
677.797
688.204
700.185
713.1
688.108
543.156
364.155
296.978
437.043
1199.64
2120.26
1975.16
1078.88
245.659
4372.78
4660.61
4794.81
4783.37
4682.02
4525.17
4395.85
4278.97
4169.07
4055.54
3942.12
3829.98
3718.68
3606.42
3492.21
3375.09
3254.54
3131.27
3008.66
2885.47
2751.58
2573.3
2543.53
3105.39
4915.38
8614.24
9563.02
7732
5436.99
1800.02
37756.9
37282
36435.3
35305.2
33983.2
32530.9
30950.3
29395.5
27956.7
26662.9
25494.9
24404
23348.8
22299.3
21237.4
20154.5
19050
17939.4
16837.4
15497.4
14040.9
15166.5
22665.6
35556.7
48372.9
58741.7
57274.3
45384.2
31899.3
11711.3
)
;

boundaryField
{
    walls
    {
        type            epsilonWallFunction;
        Cmu             0.09;
        kappa           0.41;
        E               9.8;
        value           nonuniform List<scalar> 
100
(
3.28103e+06
1.86524e+06
1.11436e+06
783055
613181
509982
435090
372459
313931
248168
3069.04
9326.78
16723.9
23561
28990.3
32829.5
35257.9
36489.4
36883.6
36789.7
36716.4
36262.5
35448.3
34356.1
33075.7
31685.5
30160.1
28643.9
27229.5
25952.9
24801.5
23731.3
22699.6
21675.9
20642.6
19593.8
18529.6
17464.6
16412.4
15129.1
13722.7
14818.3
22077.3
34584.2
47415.7
58532.2
58083.4
46572.5
33672.7
13368.1
37756.9
37282
36435.3
35305.2
33983.2
32530.9
30950.3
29395.5
27956.7
26662.9
25494.9
24404
23348.8
22299.3
21237.4
20154.5
19050
17939.4
16837.4
15497.4
14040.9
15166.5
22665.6
35556.7
48372.9
58741.7
57274.3
45384.2
31899.3
11711.3
3.32499e+06
1.87461e+06
1.11661e+06
783937
613642
509915
434301
370890
311837
246766
3217.16
9767.62
17466.4
24534.3
30104
34007.3
36432.4
37622.1
37969.7
37836.6
)
;
    }
    topInlet
    {
        type            fixedValue;
        value           uniform 14.855;
    }
    bottomInlet
    {
        type            fixedValue;
        value           uniform 14.855;
    }
    outlet
    {
        type            zeroGradient;
    }
    frontBack
    {
        type            empty;
    }
}


// ************************************************************************* //
