/*--------------------------------*- C++ -*----------------------------------*\
| =========                 |                                                 |
| \\      /  F ield         | OpenFOAM: The Open Source CFD Toolbox           |
|  \\    /   O peration     | Version:  4.x                                   |
|   \\  /    A nd           | Web:      www.OpenFOAM.org                      |
|    \\/     M anipulation  |                                                 |
\*---------------------------------------------------------------------------*/
FoamFile
{
    version     2.0;
    format      ascii;
    class       volScalarField;
    location    "0.05";
    object      k;
}
// * * * * * * * * * * * * * * * * * * * * * * * * * * * * * * * * * * * * * //

dimensions      [0 2 -2 0 0 0 0];

internalField   nonuniform List<scalar> 
800
(
5.23229
10.9774
16.2017
20.3605
23.3785
25.3989
26.6359
27.2519
27.4472
27.4
0.647879
1.1306
1.73778
2.37812
2.96615
3.47786
3.89528
4.26617
4.58598
4.8531
0.387183
0.415351
0.456969
0.508179
0.562689
0.616463
0.666911
0.714223
0.756608
0.794511
0.373385
0.372106
0.371789
0.372181
0.372802
0.37321
0.373125
0.372424
0.370929
0.368667
0.372821
0.369316
0.365567
0.361554
0.357258
0.352634
0.347653
0.342307
0.336597
0.330598
0.371391
0.364377
0.355468
0.345141
0.333889
0.322122
0.310157
0.298221
0.28649
0.275361
0.351263
0.312017
0.269822
0.23127
0.198631
0.171982
0.150564
0.133505
0.120122
0.109995
0.814158
1.00669
1.03812
1.01785
0.984752
0.95102
0.919965
0.891727
0.863483
0.811068
16.7145
15.8877
12.9721
10.9268
9.62484
8.74446
8.07043
7.48682
6.92548
6.14168
127.374
87.4082
62.0017
49.0046
41.6318
36.8179
33.1181
29.8576
26.6409
22.7762
128.509
87.7008
62.0851
49.0414
41.6527
36.8147
33.078
29.7737
26.5223
22.6903
17.0373
16.1102
13.1181
11.0385
9.7194
8.82627
8.13941
7.54214
6.96783
6.17791
0.835634
1.03462
1.06571
1.04379
1.00896
0.97365
0.941176
0.911601
0.88194
0.82736
0.350473
0.31019
0.267282
0.228436
0.195823
0.169392
0.148291
0.131592
0.118581
0.108799
0.371363
0.364172
0.355016
0.344409
0.332869
0.320826
0.308603
0.296435
0.284502
0.273212
0.372888
0.369378
0.365603
0.361542
0.357181
0.352475
0.347397
0.341942
0.336109
0.329985
0.373474
0.372274
0.372039
0.372501
0.373179
0.373621
0.37355
0.372826
0.371262
0.369007
0.387854
0.417191
0.460185
0.512769
0.568684
0.623673
0.675395
0.72361
0.766867
0.80637
0.659283
1.15946
1.78499
2.44023
3.04147
3.56123
3.98951
4.37208
4.69967
4.97098
5.39931
11.3207
16.6778
20.9175
23.9735
26.0028
27.2241
27.813
27.9834
27.9173
27.3646
27.1385
26.7308
26.1789
25.5243
24.804
24.0014
23.1901
22.4203
21.7139
21.0668
20.4564
19.8591
19.2574
18.6405
18.0036
17.3457
16.6742
15.9987
15.1613
14.192
14.855
19.2949
26.0734
32.2532
37.2197
37.223
32.2133
26.0427
14.2607
5.28183
5.61552
5.85234
5.9859
6.03862
6.02611
6.01615
6.00417
5.98628
5.95323
5.90288
5.84033
5.76892
5.69043
5.60603
5.51672
5.42344
5.32723
5.2352
5.16511
5.04909
4.53863
3.85565
3.91754
5.60894
9.94172
11.9353
10.5194
8.22378
3.70478
0.917172
1.03537
1.14154
1.22947
1.29799
1.34869
1.3867
1.41643
1.44006
1.46859
1.50748
1.55436
1.60657
1.66218
1.72093
1.78282
1.84837
1.91824
1.99629
2.08071
2.04279
1.60112
0.99307
0.690831
0.926498
2.56982
4.74778
4.6701
2.81001
0.805556
0.38102
0.394973
0.409052
0.421629
0.431657
0.438799
0.443256
0.445527
0.446202
0.446519
0.448406
0.452862
0.461602
0.47598
0.496253
0.522883
0.556326
0.597694
0.648417
0.701648
0.700825
0.55817
0.358639
0.277578
0.406459
1.08952
2.22056
1.88969
0.714546
0.181972
0.327826
0.324953
0.321649
0.31757
0.312444
0.306106
0.298503
0.289694
0.279838
0.269227
0.258315
0.247576
0.237542
0.228788
0.221867
0.217318
0.216013
0.218623
0.225841
0.235926
0.235252
0.204437
0.167651
0.200179
0.330759
0.616817
0.933756
0.537191
0.184155
0.103947
0.269723
0.263877
0.257503
0.25048
0.242838
0.23465
0.225994
0.216961
0.207651
0.198176
0.188667
0.179248
0.170024
0.161089
0.152535
0.144468
0.137044
0.130468
0.124982
0.120403
0.11462
0.105746
0.112087
0.186378
0.311554
0.374408
0.333832
0.168476
0.110796
0.102685
0.106006
0.101504
0.0970572
0.0930712
0.0897768
0.0872171
0.0853618
0.0841518
0.0834993
0.0832953
0.0834197
0.0837211
0.0840199
0.0841297
0.0838787
0.0831256
0.0817815
0.0798191
0.0772638
0.0740917
0.0704961
0.069306
0.0909798
0.185058
0.30267
0.241352
0.145501
0.111685
0.107899
0.106833
0.552851
0.363913
0.24632
0.173785
0.12836
0.0993159
0.0803932
0.0679329
0.0597386
0.0544476
0.0511864
0.0493665
0.0485624
0.048445
0.0487469
0.0492438
0.0497487
0.0501049
0.0501747
0.0498064
0.0492615
0.0520095
0.0789844
0.180717
0.292
0.194616
0.116919
0.108457
0.109026
0.108444
2.04618
0.817874
0.396649
0.224765
0.143716
0.100784
0.0759979
0.0608456
0.0513023
0.0452865
0.0416347
0.0396437
0.0388476
0.0389057
0.039546
0.0405349
0.0416656
0.0427513
0.0436169
0.0440899
0.0444118
0.0480225
0.0757229
0.177082
0.282331
0.182375
0.112641
0.108362
0.109413
0.108786
3.27754
0.982126
0.427057
0.231682
0.144912
0.10018
0.0747416
0.0593357
0.0496878
0.0436271
0.0399587
0.0379693
0.0371922
0.0372896
0.0379919
0.0390666
0.0403044
0.041514
0.0425144
0.0431307
0.0435996
0.0473451
0.0751186
0.175968
0.278749
0.179552
0.111942
0.108387
0.109494
0.108854
3.26813
0.980544
0.426553
0.231445
0.144768
0.100072
0.0746482
0.0592469
0.0495991
0.0435369
0.0398662
0.037874
0.0370938
0.0371885
0.0378895
0.0389652
0.0402062
0.041421
0.042428
0.0430523
0.0435305
0.0472815
0.0750377
0.175659
0.277757
0.179032
0.111858
0.108409
0.10952
0.108866
2.04661
0.816083
0.39546
0.22404
0.143208
0.100366
0.0756132
0.0604683
0.0509199
0.0448942
0.0412314
0.0392279
0.0384185
0.0384656
0.0391012
0.0400954
0.0412408
0.0423493
0.043244
0.0437526
0.0441129
0.0477291
0.0752525
0.175453
0.278351
0.180526
0.112305
0.108418
0.10949
0.108811
0.56101
0.367457
0.24765
0.17405
0.128097
0.0987736
0.079688
0.0671182
0.058838
0.0534756
0.050155
0.0482831
0.0474324
0.0472792
0.0475643
0.0480707
0.0486103
0.0490234
0.0491676
0.0488913
0.0484443
0.0512055
0.0777068
0.176792
0.283525
0.190369
0.11593
0.108536
0.109196
0.108481
0.104861
0.100335
0.0958401
0.0917985
0.0884477
0.0858317
0.083918
0.0826438
0.0819218
0.0816513
0.081714
0.0819524
0.082186
0.0822353
0.0819382
0.0811637
0.0798265
0.0779025
0.0754181
0.0723522
0.0688751
0.067714
0.0887325
0.179478
0.291228
0.233327
0.141665
0.111221
0.108164
0.106907
0.267524
0.26163
0.255206
0.24813
0.240439
0.232209
0.223524
0.214476
0.205167
0.195721
0.186273
0.176941
0.16782
0.158998
0.150569
0.14265
0.135378
0.128948
0.123591
0.119152
0.113433
0.104493
0.110125
0.181436
0.300878
0.363473
0.317876
0.158371
0.109027
0.102719
0.327158
0.324227
0.320849
0.316677
0.311439
0.304977
0.29724
0.288285
0.278279
0.267558
0.256577
0.245814
0.235837
0.227194
0.220469
0.216341
0.21534
0.218109
0.22532
0.235196
0.234306
0.203401
0.166066
0.196038
0.321276
0.603766
0.896433
0.480795
0.165479
0.102243
0.381664
0.395886
0.410145
0.422781
0.432796
0.439871
0.444209
0.446213
0.446523
0.446847
0.448833
0.453714
0.463643
0.47874
0.499217
0.525396
0.558068
0.59837
0.647696
0.699281
0.697424
0.555555
0.356999
0.274443
0.398237
1.07078
2.15529
1.74421
0.614248
0.162645
0.931238
1.05095
1.15777
1.2455
1.31373
1.36413
1.40204
1.43075
1.45332
1.48547
1.52646
1.57373
1.62423
1.67745
1.73336
1.79235
1.85498
1.92209
1.99744
2.07887
2.03899
1.60062
0.997873
0.696703
0.924065
2.52591
4.60382
4.45984
2.52817
0.686093
5.39793
5.72884
5.96061
6.08551
6.13318
6.12296
6.11606
6.10444
6.08521
6.04405
5.98675
5.91806
5.84139
5.75812
5.66998
5.57769
5.4816
5.38259
5.28731
5.21189
5.0885
4.58187
3.91772
3.99567
5.65945
9.81746
11.6124
10.2298
7.82075
3.30547
27.8791
27.6449
27.2247
26.6588
25.9891
25.2433
24.4188
23.594
22.8177
22.1082
21.4577
20.8412
20.236
19.625
18.9969
18.3455
17.669
16.9751
16.2737
15.4062
14.4102
15.0857
19.6341
26.5602
32.6944
37.321
36.8875
31.6681
25.1433
13.0844
)
;

boundaryField
{
    walls
    {
        type            kqRWallFunction;
        value           nonuniform List<scalar> 
100
(
127.374
87.4082
62.0017
49.0046
41.6318
36.8179
33.1181
29.8576
26.6409
22.7762
5.23229
10.9774
16.2017
20.3605
23.3785
25.3989
26.6359
27.2519
27.4472
27.4
27.3646
27.1385
26.7308
26.1789
25.5243
24.804
24.0014
23.1901
22.4203
21.7139
21.0668
20.4564
19.8591
19.2574
18.6405
18.0036
17.3457
16.6742
15.9987
15.1613
14.192
14.855
19.2949
26.0734
32.2532
37.2197
37.223
32.2133
26.0427
14.2607
27.8791
27.6449
27.2247
26.6588
25.9891
25.2433
24.4188
23.594
22.8177
22.1082
21.4577
20.8412
20.236
19.625
18.9969
18.3455
17.669
16.9751
16.2737
15.4062
14.4102
15.0857
19.6341
26.5602
32.6944
37.321
36.8875
31.6681
25.1433
13.0844
128.509
87.7008
62.0851
49.0414
41.6527
36.8147
33.078
29.7737
26.5223
22.6903
5.39931
11.3207
16.6778
20.9175
23.9735
26.0028
27.2241
27.813
27.9834
27.9173
)
;
    }
    topInlet
    {
        type            fixedValue;
        value           uniform 0.375;
    }
    bottomInlet
    {
        type            fixedValue;
        value           uniform 0.375;
    }
    outlet
    {
        type            zeroGradient;
    }
    frontBack
    {
        type            empty;
    }
}


// ************************************************************************* //
