/*--------------------------------*- C++ -*----------------------------------*\
| =========                 |                                                 |
| \\      /  F ield         | OpenFOAM: The Open Source CFD Toolbox           |
|  \\    /   O peration     | Version:  4.x                                   |
|   \\  /    A nd           | Web:      www.OpenFOAM.org                      |
|    \\/     M anipulation  |                                                 |
\*---------------------------------------------------------------------------*/
FoamFile
{
    version     2.0;
    format      ascii;
    class       volScalarField;
    location    "0.05";
    object      nut;
}
// * * * * * * * * * * * * * * * * * * * * * * * * * * * * * * * * * * * * * //

dimensions      [0 2 -1 0 0 0 0];

internalField   nonuniform List<scalar> 
800
(
0.000802828
0.00116282
0.00141263
0.00158353
0.00169678
0.00176852
0.00181101
0.00183176
0.00183825
0.00183661
0.000205388
0.000201413
0.000243141
0.000295944
0.00034915
0.000399327
0.000444641
0.000486646
0.000525195
0.000559937
0.000545324
0.000305798
0.000203568
0.000161253
0.000144328
0.000138793
0.000139021
0.000142282
0.00014724
0.000153172
0.000819425
0.00073186
0.000611809
0.00049517
0.000402884
0.000335866
0.00028817
0.000253847
0.000228981
0.000210537
0.000842796
0.000816608
0.000775841
0.000724726
0.000669021
0.000613634
0.000561652
0.000514519
0.000472627
0.000435493
0.000673503
0.000506469
0.000398834
0.000330203
0.000283861
0.000250532
0.000225203
0.000205108
0.000188707
0.00017528
7.22893e-05
3.58929e-05
2.42279e-05
1.83263e-05
1.46562e-05
1.212e-05
1.02699e-05
8.8949e-06
7.89959e-06
7.28854e-06
9.00424e-06
1.27023e-05
1.54871e-05
1.72321e-05
1.8196e-05
1.86964e-05
1.89985e-05
1.92696e-05
1.95702e-05
1.94856e-05
9.80503e-05
0.000114662
0.0001107
0.000104227
9.89134e-05
9.49635e-05
9.18973e-05
8.93199e-05
8.70006e-05
8.24209e-05
0.000445031
0.000368648
0.000310472
0.00027601
0.000254392
0.000239225
0.000226879
0.000215414
0.000203473
0.00018813
0.00044701
0.000369265
0.000310681
0.000276114
0.000254456
0.000239214
0.000226742
0.000215111
0.000203019
0.000187775
9.93824e-05
0.000115849
0.000111625
0.000105007
9.96197e-05
9.56195e-05
9.25033e-05
8.98693e-05
8.74887e-05
8.28379e-05
9.14343e-06
1.29818e-05
1.58341e-05
1.76062e-05
1.85745e-05
1.90718e-05
1.93719e-05
1.96447e-05
1.99459e-05
1.98302e-05
6.88584e-05
3.41682e-05
2.3066e-05
1.74512e-05
1.39634e-05
1.15587e-05
9.81049e-06
8.51821e-06
7.59112e-06
7.03186e-06
0.00066482
0.000494998
0.00038784
0.000320288
0.00027494
0.000242413
0.000217722
0.000198138
0.000182159
0.000169091
0.000842151
0.000814442
0.000771782
0.000718902
0.000661872
0.000605678
0.00055333
0.000506156
0.000464414
0.00042746
0.000817489
0.000726255
0.000603668
0.000486655
0.000395149
0.000329233
0.000282534
0.000249077
0.000224934
0.000206899
0.000534649
0.000297493
0.000198774
0.000158463
0.000142607
0.000137751
0.000138432
0.000142017
0.000147236
0.000153446
0.000202682
0.000202075
0.000245583
0.000299551
0.0003537
0.00040452
0.000450577
0.000493379
0.000532574
0.000567705
0.000815541
0.00118086
0.00143323
0.00160504
0.00171824
0.00178942
0.00183089
0.00185053
0.00185612
0.00185386
0.00183552
0.00182792
0.00181414
0.00179531
0.00177273
0.00174753
0.00171903
0.00168972
0.00166144
0.00163506
0.00161051
0.00158701
0.00156367
0.0015398
0.00151493
0.00148883
0.00146137
0.00143276
0.00140358
0.00136742
0.00132097
0.00134026
0.00151769
0.00176913
0.00197455
0.00213007
0.00214691
0.00200531
0.00181274
0.00136916
0.000591899
0.000626088
0.000659482
0.000689865
0.000716583
0.000739394
0.000759783
0.000777954
0.000793903
0.000806433
0.000815142
0.000820877
0.00082453
0.00082686
0.000828495
0.00082992
0.000831501
0.000833436
0.000837095
0.000848545
0.000848877
0.000734821
0.000540647
0.000458929
0.000585962
0.00102132
0.00129962
0.0012457
0.00105277
0.000593704
0.000163117
0.000176477
0.000192035
0.000208764
0.000226003
0.000243393
0.000260644
0.000277687
0.000294437
0.000311718
0.000330036
0.000349359
0.000369518
0.000390421
0.00041233
0.000435567
0.00046056
0.000487762
0.00051841
0.000552007
0.000550706
0.000429778
0.000248807
0.000148731
0.000178686
0.00048736
0.000923858
0.000946891
0.000588795
0.000197528
0.000183176
0.000163563
0.000150712
0.000143082
0.00013917
0.000137865
0.000138397
0.000140266
0.00014316
0.000146885
0.000151434
0.000156867
0.000163465
0.000171616
0.000181676
0.000194089
0.00020931
0.000228007
0.000250918
0.000275368
0.00027975
0.000229096
0.000152873
0.000128435
0.0001849
0.000386785
0.000691826
0.000572553
0.000220799
7.36528e-05
0.000392938
0.000350859
0.000312285
0.000278967
0.00025112
0.000228154
0.00020923
0.000193534
0.000180396
0.000169249
0.000159642
0.000151323
0.000144149
0.000138088
0.000133231
0.000129786
0.000128106
0.000128672
0.000131979
0.000137236
0.000138075
0.000125062
0.000115029
0.00016744
0.000262681
0.000343353
0.000415636
0.000228276
9.09951e-05
0.000122779
0.000171408
0.000168173
0.000165055
0.000161813
0.000158358
0.000154657
0.000150713
0.000146564
0.000142263
0.000137876
0.000133471
0.000129111
0.000124843
0.000120697
0.000116694
0.000112853
0.000109202
0.000105818
0.000102829
0.00010019
9.69401e-05
9.36041e-05
0.000111733
0.000201568
0.000305329
0.000284063
0.000207562
0.000116223
0.000141891
0.00034192
7.97786e-06
8.9987e-06
1.02533e-05
1.17356e-05
1.34748e-05
1.54989e-05
1.78397e-05
2.0532e-05
2.36025e-05
2.70663e-05
3.09258e-05
3.51524e-05
3.96772e-05
4.43937e-05
4.91648e-05
5.38299e-05
5.82191e-05
6.21603e-05
6.54785e-05
6.79417e-05
6.97187e-05
7.47023e-05
0.000108348
0.000215068
0.000322834
0.000243201
0.000157097
0.000203119
0.000370098
0.000560533
1.68962e-05
1.44116e-05
1.25637e-05
1.13016e-05
1.05374e-05
1.01994e-05
1.02453e-05
1.06625e-05
1.14599e-05
1.2662e-05
1.43027e-05
1.64165e-05
1.90266e-05
2.2135e-05
2.57164e-05
2.9713e-05
3.40341e-05
3.85515e-05
4.30874e-05
4.73905e-05
5.16873e-05
6.04439e-05
9.89283e-05
0.000211996
0.000324955
0.000238131
0.000206659
0.000339064
0.000514867
0.000617366
3.93827e-05
2.2498e-05
1.5331e-05
1.19336e-05
1.02087e-05
9.33255e-06
8.96878e-06
8.98614e-06
9.34802e-06
1.00667e-05
1.11821e-05
1.27485e-05
1.48203e-05
1.74392e-05
2.06219e-05
2.43494e-05
2.85599e-05
3.31416e-05
3.79202e-05
4.26518e-05
4.75417e-05
5.69152e-05
9.50124e-05
0.000206637
0.000321135
0.000239704
0.000232424
0.000386288
0.000551517
0.000626619
4.55291e-05
2.23079e-05
1.49521e-05
1.17129e-05
1.00342e-05
9.13998e-06
8.73463e-06
8.69892e-06
8.99778e-06
9.6436e-06
1.06777e-05
1.2157e-05
1.41408e-05
1.66775e-05
1.97913e-05
2.34707e-05
2.76586e-05
3.22462e-05
3.70598e-05
4.18572e-05
4.68326e-05
5.621e-05
9.36316e-05
0.000203786
0.000319304
0.000241022
0.000238744
0.000396485
0.000559531
0.000627933
4.54849e-05
2.23001e-05
1.49461e-05
1.17076e-05
1.00289e-05
9.1336e-06
8.72625e-06
8.68775e-06
8.98308e-06
9.62469e-06
1.0654e-05
1.21276e-05
1.4105e-05
1.66346e-05
1.97414e-05
2.34145e-05
2.75974e-05
3.21809e-05
3.69915e-05
4.17874e-05
4.67585e-05
5.60864e-05
9.31751e-05
0.000202679
0.000318699
0.000241528
0.000239742
0.000398112
0.000561552
0.000628106
3.93812e-05
2.24581e-05
1.53006e-05
1.19109e-05
1.01865e-05
9.30481e-06
8.93153e-06
8.9362e-06
9.28231e-06
9.98234e-06
1.10765e-05
1.26184e-05
1.46621e-05
1.72505e-05
2.04032e-05
2.41043e-05
2.82931e-05
3.28581e-05
3.76246e-05
4.23497e-05
4.72287e-05
5.64761e-05
9.37481e-05
0.00020362
0.000318713
0.000240165
0.000234797
0.000391112
0.000558954
0.000627677
1.71192e-05
1.45373e-05
1.26229e-05
1.13128e-05
1.05104e-05
1.01376e-05
1.0148e-05
1.05252e-05
1.1276e-05
1.24241e-05
1.40039e-05
1.60486e-05
1.85813e-05
2.16074e-05
2.51083e-05
2.90338e-05
3.32959e-05
3.77676e-05
4.22698e-05
4.6554e-05
5.08342e-05
5.94291e-05
9.68916e-05
0.000207513
0.000319614
0.000236361
0.00020912
0.000347456
0.000532542
0.000621307
7.71781e-06
8.72148e-06
9.94879e-06
1.13946e-05
1.30879e-05
1.50565e-05
1.73311e-05
1.99446e-05
2.29238e-05
2.62884e-05
3.00431e-05
3.41571e-05
3.85609e-05
4.31525e-05
4.78014e-05
5.23532e-05
5.66378e-05
6.04836e-05
6.37161e-05
6.61095e-05
6.78218e-05
7.26377e-05
0.000105357
0.000209676
0.000314664
0.000237188
0.000155996
0.000211573
0.000401546
0.000574412
0.000165389
0.000162328
0.000159392
0.000156343
0.000153094
0.000149613
0.000145902
0.000141995
0.000137946
0.000133816
0.000129673
0.00012557
0.000121544
0.000117617
0.000113805
0.000110119
0.000106593
0.00010331
0.000100406
9.78449e-05
9.46436e-05
9.1241e-05
0.000108482
0.000195959
0.000296801
0.000276036
0.000198051
0.000113287
0.000158227
0.000373693
0.000385449
0.000344053
0.000306248
0.000273693
0.000246527
0.000224133
0.00020568
0.000190379
0.000177557
0.000166627
0.000157171
0.000148954
0.000141834
0.000135807
0.00013098
0.000127589
0.000125984
0.000126606
0.000129905
0.000135052
0.000135784
0.000122773
0.000112145
0.000161827
0.000254538
0.000335819
0.000398788
0.00020527
8.66142e-05
0.000139056
0.000180225
0.000161233
0.000148889
0.000141646
0.000138009
0.000136892
0.00013754
0.000139465
0.000142357
0.000146041
0.000150518
0.000155895
0.000162534
0.000170673
0.000180614
0.000192713
0.000207492
0.000225611
0.000247785
0.000271403
0.000275332
0.000225256
0.000149715
0.000124056
0.000178692
0.000380129
0.000672791
0.000528923
0.000191561
7.06261e-05
0.000163753
0.000177406
0.00019317
0.00021002
0.000227329
0.000244712
0.000261907
0.000278768
0.000295285
0.000312687
0.000330997
0.000350069
0.000369565
0.000389654
0.000410633
0.000432899
0.000456902
0.000483141
0.000512834
0.00054544
0.000543773
0.000424516
0.000246097
0.0001471
0.000175842
0.000478657
0.000899688
0.000906314
0.00053319
0.000172456
0.000599707
0.000633773
0.000666887
0.000696791
0.000723069
0.000745642
0.000765848
0.000783781
0.000799382
0.00081068
0.000818266
0.000823008
0.000825824
0.000827423
0.000828524
0.000829594
0.000830938
0.000832732
0.000836256
0.000847257
0.000846916
0.00073424
0.000543089
0.000462708
0.000586454
0.00100699
0.00126908
0.00121811
0.00101247
0.000546303
0.0018527
0.0018449
0.00183082
0.00181169
0.00178879
0.00176294
0.00173391
0.00170438
0.0016761
0.00164984
0.00162538
0.00160186
0.00157844
0.00155442
0.00152935
0.0015029
0.00147493
0.00144563
0.00141559
0.0013784
0.00133102
0.00135047
0.00153072
0.00178559
0.00198878
0.00213403
0.00213816
0.00198876
0.00178363
0.00131566
)
;

boundaryField
{
    walls
    {
        type            nutkWallFunction;
        Cmu             0.09;
        kappa           0.41;
        E               9.8;
        value           uniform 0;
    }
    topInlet
    {
        type            calculated;
        value           uniform 0.000851986;
    }
    bottomInlet
    {
        type            calculated;
        value           uniform 0.000851986;
    }
    outlet
    {
        type            calculated;
        value           nonuniform List<scalar> 
20
(
0.00136916
0.000593704
0.000197528
7.36528e-05
0.000122779
0.00034192
0.000560533
0.000617366
0.000626619
0.000627933
0.000628106
0.000627677
0.000621307
0.000574412
0.000373693
0.000139056
7.06261e-05
0.000172456
0.000546303
0.00131566
)
;
    }
    frontBack
    {
        type            empty;
    }
}


// ************************************************************************* //
