/*--------------------------------*- C++ -*----------------------------------*\
| =========                 |                                                 |
| \\      /  F ield         | OpenFOAM: The Open Source CFD Toolbox           |
|  \\    /   O peration     | Version:  4.x                                   |
|   \\  /    A nd           | Web:      www.OpenFOAM.org                      |
|    \\/     M anipulation  |                                                 |
\*---------------------------------------------------------------------------*/
FoamFile
{
    version     2.0;
    format      ascii;
    class       volScalarField;
    location    "0.05";
    object      p;
}
// * * * * * * * * * * * * * * * * * * * * * * * * * * * * * * * * * * * * * //

dimensions      [1 -1 -2 0 0 0 0];

internalField   nonuniform List<scalar> 
800
(
3559.81
3410.54
3422.69
3703.48
4063.56
4307.6
4493.26
4626.68
4695.49
4492
4286.01
4077.66
2527.21
1607.82
1056.66
721.734
381.091
74.2341
-102.995
-185.754
4974.51
5205.76
3393.92
2611.88
2596.8
2744.96
2825.68
2844.81
2783.87
2682.4
5973.81
6447.02
4240.59
3189.64
2994.87
2838.05
2513.01
2110.76
1744.45
1626.66
7081.37
7660.9
4996.35
3741.09
3509.8
3343.51
3053.98
2758.33
2550.08
2551.88
8292.14
8893.63
5736.4
4303.44
3993.38
3758.31
3420.52
3050.45
2672.39
2470.71
9814.08
10037.2
6720.98
5227.04
4649.02
4157.68
3666.5
3172.38
2559.48
1896.56
12059.9
9467.84
7008.09
5988.36
5373.95
4857.14
4358.14
3784.31
2801.25
664.735
17340.6
10858.7
8001.27
6470.82
5563.67
4973.87
4498.49
3986.34
3025.74
-23.9977
11853.4
7077.09
5010.41
3936.88
3335.69
2959.72
2665.69
2359.86
1838.18
-73.3403
11978.5
7106.92
5011.16
3929.9
3329.11
2953.83
2658
2346.6
1813.88
-110.144
17621.9
10965.8
8038.61
6484.66
5572
4978.5
4496.01
3970.56
2987.13
-86.5204
12230
9567.44
7044.48
5997.34
5372.34
4846.62
4337.26
3748.44
2742.13
584.168
9878.32
10074.5
6679.06
5156.65
4572.04
4077.76
3582.96
3082.09
2458.9
1787.93
8256.55
8854.92
5633.68
4175.46
3863.47
3629.1
3287.38
2908.14
2516.28
2305.12
6963.01
7545.42
4827.22
3547.84
3314.33
3148.19
2856.09
2558.98
2355.58
2361.18
5778.11
6254.48
4003.33
2933.17
2735.97
2571.03
2227.91
1803.35
1426.46
1343.17
4706.14
4934.1
3084.23
2299.1
2306.83
2467.36
2548.87
2548.11
2489.58
2362.5
3956.54
3725.36
2111.48
1158.52
624.896
288.579
-52.8599
-341.299
-523.331
-619.488
3179.85
3055.5
3070.55
3360.1
3706.7
3949.08
4133.51
4269.79
4340.28
4145.29
2240.54
2235.5
2569.32
2877.16
3083.46
3208.23
3283.86
3342
3387.91
3409.92
3394.25
3354.79
3300.28
3233.79
3157.25
3073.78
2981.75
2889.82
2852.84
2701.13
1605.97
416.849
3637.79
16240.1
30043.1
27468.2
15810.6
11278.6
13776.9
8551.03
-330.791
50.5608
286.828
246.343
183.127
122.795
28.646
-85.3932
-150.533
-224.995
-275.004
-290.324
-290.6
-268.018
-232.562
-199.281
-162.157
-125.409
-109.65
-76.5925
123.559
72.1273
600.446
2900.75
2842.95
-3620.67
-7865.02
-4723.67
-2832.1
-2666.43
2198.85
2212.44
2303.23
2308.03
2269.04
2210.27
2124.1
1997.4
1825.22
1719.08
1602.86
1514.8
1444.58
1373.66
1309.55
1262.7
1207.68
1161.81
1141.29
1047.61
530.744
145.496
1307.26
5917.78
8621.93
3261.27
-911.764
1362.64
3925.19
2656.45
1965.58
2282.02
2531.77
2572.32
2394.77
2095.41
1742.78
1365.2
1003.78
724.292
591.494
500.975
447.699
425.276
421.593
431.505
458.938
478.286
486.09
486.488
394.513
195.897
1549.29
6549.66
9633.08
3435.89
-2436.16
-1329.39
373.446
-456.948
3001.09
3505.65
3837.16
3784.63
3415.63
2937.55
2469.87
2047.67
1697.13
1451
1296.55
1178.84
1075.68
991.597
934.808
897.905
868.052
838.222
812.01
728.053
440.441
298.463
1791.9
7173.58
10681
4150.77
-1961.9
-232.684
2324.35
1408.03
3396.8
4328.84
4829.97
4637.3
4036.44
3363.93
2736.62
2171.31
1685.39
1303.66
1035.42
850.836
724.021
644.804
602.9
583.984
579.365
574.334
568.344
537.069
424.499
361.57
1977.35
7659.45
11497.2
4762.52
-1671.11
-780.288
980.705
212.155
3995
5901.48
6608.19
6032.78
5034.56
4086.79
3256.33
2541.01
1957.92
1523.43
1231.43
1040.17
909.293
820.48
765.213
732.65
711.566
691.289
671.714
618.859
429.073
397.01
2083.94
7951.96
11984
5133.9
-1476.29
-267.063
1787.2
889.651
3197.27
6826.38
7732.88
6736.26
5450.54
4331.53
3385.88
2597.83
1972.06
1510.48
1196.56
986.474
840.53
741.142
679.711
644.434
623.415
605.303
588.613
542.601
388.216
384.766
2090.48
8014.69
12084.7
5194.7
-1433.7
-546.752
1324.61
538.297
2327.27
7181.11
8076.32
6941.19
5586.11
4419.02
3439.28
2629.57
1990.21
1519.66
1199.37
984.985
836.765
736.552
674.939
639.637
618.407
600.028
583.147
537.391
381.424
377.52
2084.46
8020.63
12096.7
5195.02
-1435
-517.878
1378.57
569.662
2078.52
7370.83
8172.87
6988.71
5614.87
4435.29
3447.63
2633.3
1991.17
1518.95
1197.55
982.401
833.812
733.507
671.875
636.524
615.128
596.563
579.502
533.467
377.042
373.127
2080.13
8018.36
12094.5
5191.7
-1439.82
-514.098
1385.48
571.729
2067.63
7364.75
8167.61
6984.09
5610.64
4431.29
3443.77
2629.51
1987.46
1515.38
1194.03
978.84
830.251
730.016
668.47
633.185
611.789
593.218
576.152
530.097
373.691
369.93
2077.24
8015.77
12090.5
5185.99
-1443.94
-517.551
1384.13
569.063
2294.35
7160.9
8058.71
6924.97
5570.66
4403.98
3424.42
2614.72
1975.5
1505.35
1185.14
970.432
822.075
722.055
660.741
625.698
604.485
586.12
569.256
523.425
367.525
364.001
2071.86
8009.34
12079.9
5176.03
-1452.29
-531.182
1372.73
558.71
3136.35
6783.93
7695.88
6700.21
5414.6
4295.45
3349.39
2560.75
1934.96
1474.18
1160.12
948.656
801.687
702.166
641.038
606.21
585.271
567.454
551.131
505.042
351.889
348.586
2055.94
7983.78
12040.3
5143.05
-1479.11
-570.409
1294.02
505.179
3907.57
5832.61
6543.34
5963.92
4961.75
4011.12
3177.71
2459.75
1876.79
1445.96
1156.29
964.635
833.273
744.64
689.395
655.647
631.36
608.099
586.158
530.923
341.175
311.499
2001.82
7878.66
11880.9
5012.27
-1577.17
-325.738
1751.79
803.82
3238.63
4181.29
4687.76
4495.56
3894.69
3221.12
2589.77
2018.15
1527.79
1144.7
872.325
684.41
561.045
487.072
449.678
435.567
432.642
428.56
422.666
387.103
275.148
213.97
1834.83
7530.82
11321.1
4556.36
-1844.5
-964.324
838.9
79.7564
2796.42
3302.22
3638.08
3589.04
3223.92
2747.55
2278.7
1856.4
1515.64
1281.42
1122.59
987.849
873.265
790.58
736.071
696.809
660.95
628.163
600.323
519.232
231.668
92.5476
1592.87
6991.8
10439.3
3870.49
-2188.72
-202.71
2208.25
1215.08
1702.34
2018.29
2266.69
2308.29
2132.4
1826.5
1459.53
1065.67
703.535
450.787
317.201
233.314
187.478
162.418
160.703
177.27
199.568
215.076
223.242
225.07
125.542
-68.592
1293.22
6312.45
9330.21
3086.74
-2753.6
-1620.72
128.04
-716.505
1882.75
1903.11
2001.78
2022.54
2004.11
1943.65
1847.29
1692.7
1532.72
1411.43
1294.18
1203.93
1127.53
1044.1
988.624
935.131
881.306
836.253
813.386
717.85
203.692
-178.352
992.185
5616.35
8256.19
2865.38
-1215.4
1264.06
3725.05
2389.12
-772.846
-397.176
-171.887
-211.865
-222.083
-280.042
-384.788
-480.514
-553.516
-633.404
-669.743
-684.21
-681.645
-647.377
-618.728
-586.017
-548.331
-512.528
-496.229
-461.27
-269.906
-316.078
220.367
2544.13
2440.91
-4056.49
-8206.73
-4999.11
-3209.94
-3051.43
1934.54
1926.76
2255.13
2563.28
2736.08
2849.18
2920.99
2981.13
3024.42
3040.18
3015.68
2972.67
2914.29
2844.41
2762.72
2671.96
2573.54
2475.24
2429.74
2266.73
1171.99
-5.69454
3239.77
15903.7
29590.3
26717.1
14942.9
10783.7
13584.3
8100.82
)
;

boundaryField
{
    walls
    {
        type            calculated;
        value           nonuniform List<scalar> 
100
(
12.2954
11.0012
9.7069
8.41265
7.1184
5.82414
4.52989
3.23563
1.94138
0.647127
259.427
258.141
256.855
255.57
254.284
252.998
251.712
250.426
249.141
247.855
247.212
247.212
247.212
247.212
247.212
247.212
247.212
247.212
247.212
247.212
247.212
247.212
247.212
247.212
247.212
247.212
247.212
247.212
247.212
247.212
247.212
247.212
247.212
247.212
247.212
247.212
247.212
247.212
247.212
247.212
-244.76
-244.76
-244.76
-244.76
-244.76
-244.76
-244.76
-244.759
-244.759
-244.759
-244.759
-244.759
-244.759
-244.759
-244.759
-244.759
-244.76
-244.76
-244.76
-244.76
-244.76
-244.76
-244.76
-244.76
-245.037
-245.943
-246.537
-246.869
-247.127
-247.212
-12.1734
-10.892
-9.6106
-8.32919
-7.04778
-5.76636
-4.48495
-3.20353
-1.92212
-0.640707
-256.853
-255.58
-254.307
-253.034
-251.761
-250.488
-249.215
-247.942
-246.669
-245.396
)
;
    }
    topInlet
    {
        type            calculated;
        value           nonuniform List<scalar> 10(-14.5328 -19.954 -31.6337 -56.7969 -89.2753 -119.86 -150.444 -181.029 -211.613 -242.198);
    }
    bottomInlet
    {
        type            calculated;
        value           nonuniform List<scalar> 10(244.624 213.733 182.843 151.952 121.061 90.1698 57.366 31.9507 20.1539 14.6784);
    }
    outlet
    {
        type            calculated;
        value           nonuniform List<scalar> 
20
(
231.761
200.86
169.958
139.057
108.155
77.2538
44.4387
19.0147
7.21387
1.73643
-1.73643
-7.21387
-19.0147
-44.4387
-77.2537
-108.155
-139.057
-169.958
-200.86
-231.761
)
;
    }
    frontBack
    {
        type            empty;
    }
}


// ************************************************************************* //
