/*--------------------------------*- C++ -*----------------------------------*\
| =========                 |                                                 |
| \\      /  F ield         | OpenFOAM: The Open Source CFD Toolbox           |
|  \\    /   O peration     | Version:  4.x                                   |
|   \\  /    A nd           | Web:      www.OpenFOAM.org                      |
|    \\/     M anipulation  |                                                 |
\*---------------------------------------------------------------------------*/
FoamFile
{
    version     2.0;
    format      ascii;
    class       volScalarField;
    location    "0.05";
    object      p_rgh;
}
// * * * * * * * * * * * * * * * * * * * * * * * * * * * * * * * * * * * * * //

dimensions      [1 -1 -2 0 0 0 0];

internalField   nonuniform List<scalar> 
800
(
3315.84
3167.85
3181.28
3463.36
3824.72
4070.05
4257
4391.7
4461.8
4259.6
4072.92
3865.86
2316.7
1398.59
848.723
515.085
175.73
-129.84
-305.782
-387.253
4792.32
5024.85
3214.3
2433.55
2419.76
2569.21
2651.22
2671.63
2611.98
2511.8
5822.51
6297.01
4091.86
3042.2
2848.72
2693.2
2369.45
1968.48
1603.46
1486.96
6960.96
7541.78
4878.52
3624.55
3394.55
3229.55
2941.31
2646.96
2439.99
2443.08
8202.62
8805.4
5649.47
4217.79
3909.02
3675.25
3338.75
2969.97
2593.21
2392.81
9757.36
9981.81
6666.85
5174.2
4597.48
4107.43
3617.54
3124.72
2513.1
1851.48
12028.6
9437.83
6979.37
5960.94
5347.82
4832.31
4334.6
3762.06
2780.3
645.075
17321.1
10840.5
7984.35
6455.2
5549.34
4960.84
4486.75
3975.89
3016.58
-31.8584
11839.3
7064.35
4998.97
3926.73
3326.84
2952.16
2659.42
2354.89
1834.5
-75.7238
11992.4
7119.53
5022.48
3939.95
3337.88
2961.32
2664.21
2351.52
1817.52
-107.785
17641.2
10983.8
8055.36
6500.13
5586.19
4991.4
4507.63
3980.91
2996.19
-78.7377
12261
9597.15
7072.92
6024.49
5398.21
4871.2
4360.57
3770.46
2762.87
603.634
9934.47
10129.4
6732.65
5208.97
4623.07
4127.52
3631.43
3129.29
2504.81
1832.57
8345.18
8942.27
5719.75
4260.26
3946.99
3711.33
3368.34
2987.83
2594.68
2382.25
7082.23
7663.36
4943.88
3663.23
3428.44
3261.01
2967.64
2669.25
2464.58
2468.9
5927.91
6403.01
4150.58
3079.14
2880.67
2714.45
2370.05
1944.21
1566.05
1481.48
4886.53
5113.21
3262.07
2475.66
2482.12
2641.37
2721.6
2719.56
2659.76
2531.41
4167.51
3935.05
2319.91
1365.67
830.769
493.178
150.464
-139.25
-322.556
-419.988
3421.41
3295.78
3309.56
3597.83
3943.16
4184.26
4367.42
4502.43
4571.65
4375.38
2008.78
2003.74
2337.56
2645.4
2851.7
2976.47
3052.09
3110.24
3156.15
3178.16
3162.49
3123.03
3068.52
3002.03
2925.49
2842.02
2749.99
2658.06
2621.08
2469.36
1374.21
185.088
3406.03
16008.4
29811.3
27236.5
15578.8
11046.8
13545.1
8319.26
-531.65
-150.299
85.9681
45.4828
-17.7329
-78.0645
-172.214
-286.253
-351.393
-425.854
-475.863
-491.184
-491.46
-468.878
-433.422
-400.141
-363.016
-326.269
-310.51
-277.452
-77.3009
-128.732
399.586
2699.89
2642.09
-3821.53
-8065.88
-4924.53
-3032.96
-2867.29
2028.89
2042.48
2133.27
2138.07
2099.08
2040.31
1954.14
1827.44
1655.26
1549.13
1432.91
1344.84
1274.63
1203.7
1139.59
1092.74
1037.72
991.854
971.337
877.65
360.786
-24.4626
1137.3
5747.82
8451.97
3091.32
-1081.72
1192.68
3755.23
2486.49
1826.53
2142.96
2392.71
2433.26
2255.71
1956.35
1603.72
1226.14
864.728
585.235
452.438
361.918
308.642
286.219
282.536
292.449
319.881
339.229
347.033
347.431
255.456
56.8404
1410.24
6410.6
9494.02
3296.84
-2575.22
-1468.45
234.389
-596.005
2892.93
3397.5
3729.01
3676.48
3307.48
2829.4
2361.71
1939.52
1588.97
1342.85
1188.4
1070.69
967.529
883.442
826.653
789.75
759.896
730.067
703.854
619.898
332.286
190.308
1683.74
7065.43
10572.9
4042.61
-2070.06
-340.839
2216.2
1299.87
3319.55
4251.59
4752.72
4560.05
3959.19
3286.67
2659.37
2094.05
1608.14
1226.41
958.164
773.583
646.768
567.55
525.646
506.731
502.112
497.08
491.091
459.815
347.246
284.316
1900.1
7582.2
11419.9
4685.26
-1748.37
-857.542
903.451
134.901
3950.56
5857.04
6563.75
5988.34
4990.12
4042.35
3211.89
2496.58
1913.48
1479
1187
995.733
864.854
776.041
720.774
688.212
667.127
646.851
627.275
574.42
384.634
352.572
2039.5
7907.52
11939.6
5089.46
-1520.73
-311.502
1742.76
845.212
3178.25
6807.36
7713.87
6717.24
5431.53
4312.51
3366.87
2578.82
1953.05
1491.46
1177.54
967.459
821.515
722.127
660.696
625.42
604.4
586.289
569.599
523.587
369.201
365.752
2071.46
7995.67
12065.7
5175.68
-1452.72
-565.766
1305.59
519.282
2320.06
7173.9
8069.1
6933.97
5578.9
4411.8
3432.07
2622.36
1983
1512.45
1192.16
977.771
829.551
729.338
667.725
632.423
611.193
592.814
575.933
530.177
374.21
370.307
2077.24
8013.42
12089.5
5187.81
-1442.22
-525.092
1371.35
562.448
2076.78
7369.09
8171.13
6986.97
5613.13
4433.55
3445.9
2631.56
1989.44
1517.22
1195.82
980.665
832.076
731.771
670.139
634.788
613.392
594.827
577.766
531.731
375.306
371.391
2078.4
8016.63
12092.7
5189.97
-1441.55
-515.835
1383.74
569.993
2069.35
7366.47
8169.33
6985.81
5612.36
4433.01
3445.49
2631.23
1989.18
1517.1
1195.75
980.56
831.971
731.736
670.19
634.906
613.51
594.939
577.873
531.818
375.412
371.651
2078.96
8017.49
12092.2
5187.72
-1442.21
-515.814
1385.87
570.799
2301.49
7168.05
8065.85
6932.11
5577.81
4411.12
3431.56
2621.86
1982.64
1512.5
1192.28
977.574
829.217
729.197
667.883
632.841
611.628
593.262
576.399
530.567
374.667
371.143
2079
8016.5
12087.1
5183.24
-1445.08
-523.968
1379.94
565.923
3155.17
6802.76
7714.71
6719.04
5433.42
4314.27
3368.21
2579.58
1953.79
1493
1178.95
967.482
820.513
720.992
659.864
625.037
604.097
586.28
569.957
523.868
370.715
367.412
2074.77
8002.64
12059.2
5162.07
-1460.09
-551.395
1313.04
524.193
3951.57
5876.61
6587.33
6007.92
5005.74
4055.11
3221.71
2503.75
1920.78
1489.95
1200.29
1008.63
877.271
788.638
733.393
699.645
675.358
652.097
630.155
574.92
385.173
355.496
2045.82
7922.69
11925.3
5056.71
-1532.74
-281.299
1796.23
848.259
3315.12
4257.78
4764.25
4572.05
3971.18
3297.6
2666.26
2094.63
1604.28
1221.18
948.813
760.897
637.532
563.56
526.165
512.055
509.129
505.047
499.154
463.59
351.635
290.458
1911.31
7607.33
11398.1
4633.61
-1767.25
-887.07
916.154
157.01
2903.5
3409.3
3745.16
3696.12
3331
2854.63
2385.79
1963.48
1622.73
1388.5
1229.67
1094.93
980.347
897.663
843.153
803.892
768.032
735.246
707.406
626.314
338.75
199.63
1699.95
7098.89
10547.1
3978.65
-2080.57
-94.5546
2316.4
1323.24
1840.02
2155.96
2404.37
2445.97
2270.08
1964.18
1597.2
1203.34
841.212
588.464
454.879
370.991
325.155
300.096
298.38
314.948
337.245
352.753
360.919
362.747
263.22
69.0852
1430.9
6450.13
9468.7
3225.79
-2614.54
-1481.66
267.097
-577.448
2051.02
2071.38
2170.05
2190.81
2172.38
2111.93
2015.56
1860.97
1701
1579.7
1462.45
1372.2
1295.8
1212.37
1156.9
1103.4
1049.58
1004.53
981.658
886.122
371.964
-10.0797
1160.46
5784.62
8425.38
3035.33
-1045.45
1434.02
3895.01
2559.08
-573.979
-198.309
26.9805
-12.9976
-23.216
-81.1749
-185.921
-281.647
-354.649
-434.537
-470.876
-485.343
-482.778
-448.51
-419.861
-387.15
-349.463
-313.661
-297.361
-262.403
-71.0386
-117.211
419.234
2743
2640.73
-3855.63
-8005.87
-4798.25
-3009.08
-2850.57
2164
2156.22
2484.59
2792.74
2965.54
3078.64
3150.45
3210.6
3253.88
3269.64
3245.14
3202.13
3143.76
3073.87
2992.18
2901.42
2803
2704.7
2659.2
2496.19
1401.45
223.767
3469.23
16133.1
29820
26947.7
15174
11015.1
13816
8332.58
)
;

boundaryField
{
    walls
    {
        type            fixedValue;
        value           uniform 0;
    }
    topInlet
    {
        type            fixedValue;
        value           uniform 0;
    }
    bottomInlet
    {
        type            fixedValue;
        value           uniform 0;
    }
    outlet
    {
        type            fixedValue;
        value           uniform 0;
    }
    frontBack
    {
        type            empty;
    }
}


// ************************************************************************* //
