/*--------------------------------*- C++ -*----------------------------------*\
| =========                 |                                                 |
| \\      /  F ield         | OpenFOAM: The Open Source CFD Toolbox           |
|  \\    /   O peration     | Version:  4.x                                   |
|   \\  /    A nd           | Web:      www.OpenFOAM.org                      |
|    \\/     M anipulation  |                                                 |
\*---------------------------------------------------------------------------*/
FoamFile
{
    version     2.0;
    format      ascii;
    class       surfaceScalarField;
    location    "0.05";
    object      phi;
}
// * * * * * * * * * * * * * * * * * * * * * * * * * * * * * * * * * * * * * //

dimensions      [0 3 -1 0 0 0 0];

internalField   nonuniform List<scalar> 
1530
(
0.00147876
5.32807e-05
0.00142259
3.53533e-05
0.00137519
2.63126e-05
0.00133272
1.93069e-05
0.00129537
1.15536e-05
0.00126188
5.82855e-06
0.00123232
4.07049e-07
0.00120658
-4.49472e-06
0.0011848
-9.07488e-06
-1.39645e-05
0.00116925
0.0015488
5.60192e-05
0.00154143
4.2723e-05
0.00153382
3.39227e-05
0.00152524
2.78906e-05
0.00151481
2.19759e-05
0.00150391
1.67299e-05
0.0014921
1.22242e-05
0.00147912
8.48282e-06
0.00146566
4.38511e-06
6.06202e-07
0.00145109
0.00155089
5.48722e-05
0.00155082
4.27874e-05
0.00155024
3.45085e-05
0.00154938
2.87427e-05
0.00154798
2.33761e-05
0.00154632
1.83953e-05
0.00154449
1.40538e-05
0.00154277
1.01997e-05
0.00154094
6.21205e-06
2.03732e-06
0.00153951
0.00154811
5.39537e-05
0.00154914
4.17547e-05
0.00154979
3.38607e-05
0.00155066
2.78743e-05
0.00155171
2.23188e-05
0.00155277
1.7335e-05
0.00155377
1.30589e-05
0.00155451
9.45384e-06
0.00155419
6.53315e-06
4.23653e-06
0.00155199
0.00154541
5.2859e-05
0.00154691
4.02609e-05
0.00154778
3.29911e-05
0.00154902
2.66319e-05
0.00155043
2.09044e-05
0.00155162
1.61477e-05
0.00155256
1.21213e-05
0.00155316
8.84717e-06
0.00155288
6.81786e-06
6.39156e-06
0.00155072
0.00154292
5.10012e-05
0.0015445
3.86833e-05
0.00154511
3.23857e-05
0.00154654
2.51978e-05
0.00154786
1.95822e-05
0.00154862
1.53937e-05
0.00154907
1.16706e-05
0.00154933
8.58279e-06
0.00154842
7.73146e-06
1.21533e-05
0.00154266
0.00173066
4.75368e-05
0.00172649
4.28512e-05
0.00172279
3.60847e-05
0.00171951
2.84773e-05
0.00171404
2.50531e-05
0.0017063
2.31337e-05
0.00169715
2.08247e-05
0.00168746
1.82707e-05
0.00167679
1.83983e-05
3.5143e-05
0.0016538
0.000779556
6.74711e-05
0.000743106
7.9301e-05
0.000709492
6.96987e-05
0.000675216
6.27538e-05
0.000641739
5.85302e-05
0.000610199
5.46739e-05
0.000580903
5.01207e-05
0.000554969
4.42044e-05
0.000537305
3.60624e-05
4.54444e-05
0.000527003
0.000280676
0.000157213
0.000225885
0.000134092
0.000191875
0.000103709
0.000169573
8.50554e-05
0.000154217
7.38865e-05
0.000142422
6.64683e-05
0.000132287
6.02567e-05
0.000123103
5.33875e-05
0.000117846
4.13197e-05
2.3975e-05
0.000139316
7.13628e-05
4.5683e-05
3.46154e-05
2.87196e-05
2.51233e-05
2.25647e-05
2.04382e-05
1.84187e-05
1.64438e-05
4.21748e-05
7.04472e-05
-0.000158745
4.49237e-05
-0.000134879
3.40074e-05
-0.000103928
2.82086e-05
-8.5069e-05
2.46696e-05
-7.38607e-05
2.21416e-05
-6.64052e-05
2.00319e-05
-6.01053e-05
1.80298e-05
-5.30753e-05
1.61e-05
-4.07678e-05
-2.33871e-05
4.19755e-05
0.000279032
-6.75452e-05
0.000223887
-7.97336e-05
0.000189918
-6.99597e-05
0.000167711
-6.28612e-05
0.000152412
-5.85625e-05
0.000140628
-5.46205e-05
0.000130475
-4.9953e-05
0.000121286
-4.38861e-05
0.000116088
-3.55696e-05
-4.51515e-05
0.000137852
0.000778392
-4.68826e-05
0.00074094
-4.22811e-05
0.000706506
-3.55261e-05
0.00067149
-2.78448e-05
0.000637393
-2.44655e-05
0.000605347
-2.25748e-05
0.000575654
-2.02592e-05
0.000549465
-1.76977e-05
0.000531818
-1.79226e-05
-3.5087e-05
0.000521754
0.00173007
-5.05507e-05
0.00172577
-3.79839e-05
0.00172187
-3.16285e-05
0.00171837
-2.43441e-05
0.00171258
-1.8676e-05
0.00170445
-1.44445e-05
0.00169488
-1.06825e-05
0.00168476
-7.57689e-06
0.00167363
-6.79982e-06
-1.14492e-05
0.00165
0.00154247
-5.2528e-05
0.00154413
-3.964e-05
0.00154475
-3.22553e-05
0.00154622
-2.58085e-05
0.00154755
-2.00126e-05
0.00154831
-1.52036e-05
0.00154877
-1.11383e-05
0.00154904
-7.8474e-06
0.00154808
-5.84207e-06
-5.5298e-06
0.00154216
0.001545
-5.36942e-05
0.00154658
-4.12154e-05
0.00154749
-3.31676e-05
0.00154877
-2.70904e-05
0.00155023
-2.14686e-05
0.00155145
-1.6429e-05
0.00155242
-1.21014e-05
0.00155302
-8.452e-06
0.00155273
-5.55565e-06
-3.41687e-06
0.00155062
0.00154775
-5.4672e-05
0.00154885
-4.23089e-05
0.00154953
-3.38467e-05
0.00155043
-2.79939e-05
0.00155155
-2.25917e-05
0.0015527
-1.75738e-05
0.00155378
-1.31843e-05
0.00155456
-9.2294e-06
0.00155408
-5.07911e-06
-1.16609e-06
0.00155183
0.00155061
-5.59049e-05
0.00155057
-4.22686e-05
0.00154995
-3.32261e-05
0.00154903
-2.70769e-05
0.00154763
-2.11856e-05
0.00154596
-1.59121e-05
0.00154422
-1.14364e-05
0.00154245
-7.46378e-06
0.00154075
-3.37403e-06
3.4699e-07
0.00153923
0.00154854
-5.32494e-05
0.00154115
-3.48779e-05
0.00153349
-2.55732e-05
0.00152472
-1.82993e-05
0.00151424
-1.07071e-05
0.00150317
-4.84505e-06
0.00149105
6.80742e-07
0.0014779
5.68868e-06
0.00146428
1.02496e-05
1.49897e-05
0.00144964
0.00147754
0.00142081
0.00137308
0.00133048
0.00129292
0.00125935
0.00122984
0.00120424
0.00118256
0.00116695
0.00113794
2.2774e-05
0.00110728
2.0703e-05
0.00107605
1.7617e-05
0.00104582
1.22785e-05
0.00101661
6.74295e-06
0.000989152
3.6016e-07
0.000964152
-6.95127e-06
0.000941292
-1.44386e-05
0.000919972
-2.19075e-05
0.000899303
-2.89138e-05
0.000878307
-3.50805e-05
0.00085648
-4.09903e-05
0.000833543
-4.69563e-05
0.00080937
-5.31398e-05
0.000783968
-5.96618e-05
0.000757431
-6.66458e-05
0.000729957
-7.4076e-05
0.000701775
-8.22486e-05
0.00066964
-9.02847e-05
0.000628988
-8.89447e-05
0.000621035
-7.28801e-05
0.000769752
-0.000160829
0.00116454
-0.000635815
0.0016334
-0.00157941
0.00189841
-0.00230817
0.00182218
-0.00179016
0.0015386
-0.000794307
0.00125018
-0.000485706
0.00085889
-0.000575569
-0.000343597
0.0014358
3.80599e-05
0.00141919
3.73103e-05
0.00140195
3.48588e-05
0.00138356
3.06705e-05
0.00136461
2.56917e-05
0.00134455
2.04252e-05
0.00132261
1.49848e-05
0.00129879
9.38016e-06
0.001274
2.88665e-06
0.0012485
-3.42096e-06
0.00122265
-9.22251e-06
0.00119645
-1.47945e-05
0.00116975
-2.02512e-05
0.0011425
-2.58964e-05
0.00111463
-3.1786e-05
0.00108595
-3.79703e-05
0.00105646
-4.45888e-05
0.00102601
-5.17952e-05
0.000993406
-5.76807e-05
0.000964272
-5.98099e-05
0.000973616
-8.22244e-05
0.0010554
-0.000242616
0.00116014
-0.000740555
0.00116252
-0.0015818
0.0010833
-0.00222894
0.00102998
-0.00173683
0.00096321
-0.000727539
0.000810572
-0.000333068
0.000515929
-0.000280927
-0.000138878
0.0015345
4.30734e-05
0.00152917
4.2638e-05
0.00152329
4.07436e-05
0.00151676
3.71968e-05
0.00150972
3.27305e-05
0.00150213
2.80126e-05
0.00149389
2.32344e-05
0.00148486
1.84045e-05
0.00147427
1.3476e-05
0.00146212
8.73036e-06
0.0014477
5.20013e-06
0.00143118
1.72262e-06
0.00141266
-1.73281e-06
0.00139214
-5.37082e-06
0.0013696
-9.25388e-06
0.0013452
-1.35614e-05
0.0013188
-1.81973e-05
0.00129049
-2.34771e-05
0.00126147
-2.86637e-05
0.00123838
-3.67225e-05
0.00123507
-7.89171e-05
0.00124765
-0.000255189
0.0012112
-0.000704109
0.00104532
-0.00141591
0.000799213
-0.00198284
0.000640363
-0.00157798
0.000565885
-0.000653061
0.000440749
-0.000207931
0.000245746
-8.59236e-05
-3.58406e-05
0.00155048
4.45874e-05
0.00154862
4.44934e-05
0.00154733
4.20413e-05
0.00154647
3.80505e-05
0.00154572
3.34835e-05
0.00154489
2.88437e-05
0.00154382
2.43079e-05
0.00154223
1.99932e-05
0.00153978
1.59198e-05
0.00153614
1.23762e-05
0.0015316
9.73818e-06
0.00152571
7.61568e-06
0.00151826
5.71572e-06
0.00150899
3.89322e-06
0.00149766
2.08302e-06
0.001484
9.95946e-08
0.00146791
-2.10778e-06
0.0014492
-4.77511e-06
0.00142836
-7.82098e-06
0.00140878
-1.71385e-05
0.00139257
-6.27105e-05
0.00135963
-0.00022225
0.00125357
-0.000598043
0.0010154
-0.00117775
0.000680447
-0.00164788
0.000428034
-0.00132557
0.000304443
-0.00052947
0.000197757
-0.000101245
9.27773e-05
1.90561e-05
1.29142e-05
0.00154905
4.62611e-05
0.00154786
4.56875e-05
0.00154784
4.20591e-05
0.00154863
3.72585e-05
0.0015496
3.25134e-05
0.00155048
2.79676e-05
0.00155107
2.37166e-05
0.00155116
1.9903e-05
0.00155056
1.65191e-05
0.00154928
1.36546e-05
0.00154741
1.16109e-05
0.00154484
1.01877e-05
0.00154142
9.13482e-06
0.00153698
8.32855e-06
0.00153139
7.67631e-06
0.00152444
7.04323e-06
0.00151591
6.42506e-06
0.00150558
5.55528e-06
0.00149367
4.08637e-06
0.00147971
-3.17282e-06
0.00145737
-4.03764e-05
0.00140144
-0.000166321
0.00126062
-0.000457214
0.000985975
-0.000903112
0.000601068
-0.00126298
0.000284947
-0.00100945
0.000130316
-0.000374838
6.55346e-05
-3.64636e-05
4.2508e-05
4.20826e-05
1.56138e-05
0.0015393
4.96194e-05
0.00153681
4.81725e-05
0.00153628
4.25899e-05
0.00153655
3.69901e-05
0.00153682
3.22416e-05
0.00153683
2.79559e-05
0.00153634
2.42099e-05
0.00153515
2.10958e-05
0.00153314
1.8528e-05
0.0015303
1.64966e-05
0.00152676
1.51466e-05
0.00152261
1.43374e-05
0.00151791
1.38389e-05
0.00151273
1.35074e-05
0.00150715
1.32583e-05
0.00150119
1.30029e-05
0.00149488
1.27285e-05
0.00148817
1.22695e-05
0.00148096
1.12961e-05
0.00147156
6.22966e-06
0.00145066
-1.94771e-05
0.00138959
-0.00010525
0.00123726
-0.000304886
0.000946283
-0.000612136
0.00053428
-0.000850972
0.000188856
-0.000664023
4.57456e-05
-0.000231728
2.22833e-05
-1.30013e-05
2.86072e-05
3.57588e-05
1.41895e-05
0.00164283
6.05925e-05
0.00163469
5.63138e-05
0.00163046
4.68155e-05
0.00162716
4.02961e-05
0.00162417
3.52266e-05
0.00162116
3.09675e-05
0.00161779
2.75779e-05
0.00161401
2.48812e-05
0.00160988
2.26522e-05
0.00160561
2.07704e-05
0.00160152
1.92377e-05
0.00159786
1.79942e-05
0.00159478
1.69167e-05
0.00159238
1.59064e-05
0.00159073
1.49118e-05
0.00158983
1.38998e-05
0.00158965
1.29101e-05
0.00159003
1.18874e-05
0.00159069
1.06372e-05
0.00158951
7.40834e-06
0.00157506
-5.02527e-06
0.00151406
-4.42454e-05
0.00134466
-0.000135488
0.00101097
-0.000278447
0.000534706
-0.00037471
0.00014655
-0.000275867
1.25135e-05
-9.76916e-05
1.09768e-05
-1.14645e-05
3.03525e-05
1.63831e-05
7.31648e-06
0.000532717
5.48792e-05
0.000547535
4.14959e-05
0.000562666
3.1684e-05
0.000577211
2.5751e-05
0.00059111
2.13283e-05
0.000604027
1.80506e-05
0.000615968
1.56362e-05
0.000627046
1.38037e-05
0.000637342
1.23562e-05
0.000646944
1.11677e-05
0.000655976
1.02059e-05
0.000664513
9.45713e-06
0.00067258
8.84949e-06
0.000680191
8.29547e-06
0.000687364
7.7395e-06
0.000694112
7.15103e-06
0.000700448
6.57439e-06
0.00070635
5.98507e-06
0.000711692
5.29529e-06
0.000715363
3.73789e-06
0.000712087
-1.7493e-06
0.000686286
-1.84442e-05
0.000607743
-5.69445e-05
0.000445558
-0.000116262
0.000220748
-0.0001499
5.3082e-05
-0.000108201
2.65082e-06
-4.72603e-05
4.65717e-06
-1.34709e-05
1.3117e-05
7.92323e-06
4.5888e-06
0.000167753
2.64418e-05
0.000193535
1.57139e-05
0.000213426
1.17923e-05
0.000229698
9.47903e-06
0.000243214
7.81229e-06
0.00025462
6.64479e-06
0.000264435
5.82171e-06
0.000273013
5.22534e-06
0.000280597
4.77228e-06
0.000287373
4.39152e-06
0.000293502
4.07745e-06
0.0002991
3.85879e-06
0.000304243
3.70705e-06
0.000308978
3.55962e-06
0.000313346
3.37175e-06
0.000317377
3.1204e-06
0.000321093
2.85814e-06
0.000324505
2.57299e-06
0.000327559
2.24155e-06
0.000329698
1.59906e-06
0.000328384
-4.35563e-07
0.000316372
-6.43213e-06
0.00027965
-2.02231e-05
0.000202469
-3.9081e-05
9.67432e-05
-4.41737e-05
2.19589e-05
-3.34166e-05
9.86062e-07
-2.62875e-05
2.28519e-06
-1.477e-05
5.88414e-06
4.32428e-06
3.30082e-06
6.81279e-05
4.88701e-07
8.32626e-05
5.79271e-07
9.43984e-05
6.56423e-07
0.000103166
7.1116e-07
0.000110218
7.60914e-07
0.000116052
8.1097e-07
0.000121006
8.67246e-07
0.000125293
9.38071e-07
0.000129053
1.01226e-06
0.000132391
1.05398e-06
0.000135391
1.0769e-06
0.000138119
1.13157e-06
0.000140614
1.21177e-06
0.000142904
1.26906e-06
0.000145011
1.26522e-06
0.00014695
1.1813e-06
0.000148734
1.07454e-06
0.000150368
9.38253e-07
0.000151829
7.81146e-07
0.000152849
5.79165e-07
0.000152233
1.80583e-07
0.000146604
-8.03926e-07
0.00012947
-3.08897e-06
9.33614e-05
-2.97223e-06
4.4095e-05
5.0927e-06
9.81064e-06
8.67733e-07
4.59467e-07
-1.69363e-05
1.09162e-06
-1.54021e-05
2.70627e-06
2.70963e-06
2.70015e-06
6.80129e-05
-2.55487e-05
8.31632e-05
-1.4571e-05
9.43148e-05
-1.04952e-05
0.000103095
-8.06893e-06
0.000110155
-6.29957e-06
0.000115996
-5.02996e-06
0.000120956
-4.09291e-06
0.000125248
-3.35381e-06
0.000129012
-2.75175e-06
0.000132354
-2.28731e-06
0.000135358
-1.92711e-06
0.000138088
-1.59864e-06
0.000140586
-1.28612e-06
0.000142879
-1.02395e-06
0.000144988
-8.43788e-07
0.000146929
-7.60306e-07
0.000148715
-7.11478e-07
0.000150352
-6.98736e-07
0.000151815
-6.81349e-07
0.000152837
-4.42617e-07
0.000152221
7.95807e-07
0.000146592
4.82596e-06
0.000129448
1.40549e-05
9.33216e-05
3.31539e-05
4.40597e-05
5.43546e-05
9.79808e-06
3.51293e-05
4.5745e-07
-7.5957e-06
1.09153e-06
-1.60362e-05
2.70608e-06
1.09507e-06
2.09989e-06
0.000166567
-5.42634e-05
0.000192536
-4.05394e-05
0.000212582
-3.0542e-05
0.000228977
-2.4464e-05
0.000242589
-1.99109e-05
0.00025407
-1.65112e-05
0.000263945
-1.39679e-05
0.000272573
-1.19813e-05
0.000280199
-1.03778e-05
0.000287014
-9.10225e-06
0.000293177
-8.09079e-06
0.000298806
-7.22729e-06
0.000303975
-6.4549e-06
0.000308735
-5.78433e-06
0.000313127
-5.2359e-06
0.000317182
-4.81524e-06
0.000320922
-4.45095e-06
0.000324355
-4.13233e-06
0.000327429
-3.75489e-06
0.000329585
-2.59925e-06
0.000328281
2.10013e-06
0.000316256
1.68505e-05
0.000279455
5.08566e-05
0.000202126
0.000110483
9.64325e-05
0.000160048
2.18461e-05
0.000109716
9.67665e-07
1.32827e-05
2.28452e-06
-1.73531e-05
5.88248e-06
-2.50288e-06
8.15639e-07
0.000527871
-6.03804e-05
0.000543205
-5.58736e-05
0.000558778
-4.6115e-05
0.000573706
-3.93926e-05
0.000587938
-3.41426e-05
0.000601145
-2.97179e-05
0.000613338
-2.61614e-05
0.000624634
-2.32769e-05
0.000635126
-2.08704e-05
0.000644918
-1.88939e-05
0.000654127
-1.73001e-05
0.000662822
-1.5922e-05
0.00067103
-1.46632e-05
0.000678775
-1.35292e-05
0.000686082
-1.25422e-05
0.000692965
-1.16988e-05
0.000699431
-1.09165e-05
0.000705455
-1.01566e-05
0.00071091
-9.21032e-06
0.000714683
-6.37191e-06
0.000711471
5.31164e-06
0.000685625
4.26967e-05
0.000606685
0.000129797
0.000443772
0.000273395
0.000219099
0.000384721
5.24442e-05
0.000276371
2.54256e-06
6.31844e-05
4.6651e-06
-1.94756e-05
1.31002e-05
-1.0938e-05
-1.9005e-06
0.00163871
-4.90999e-05
0.00163034
-4.75004e-05
0.00162595
-4.17208e-05
0.00162249
-3.59384e-05
0.00161938
-3.10278e-05
0.00161625
-2.65923e-05
0.00161278
-2.26876e-05
0.00160889
-1.93861e-05
0.00160467
-1.66529e-05
0.00160035
-1.45767e-05
0.00159627
-1.32168e-05
0.00159266
-1.23109e-05
0.00158967
-1.16729e-05
0.00158741
-1.12679e-05
0.00158595
-1.10849e-05
0.00158531
-1.10567e-05
0.00158542
-1.10261e-05
0.00158612
-1.08549e-05
0.0015871
-1.01946e-05
0.00158623
-5.50543e-06
0.001572
1.95499e-05
0.00151083
0.000103859
0.00133994
0.000300693
0.00100352
0.000609808
0.000527591
0.000860654
0.000143264
0.000660698
1.17905e-05
0.000194658
1.08434e-05
-1.85285e-05
3.03082e-05
-3.04028e-05
-8.64596e-06
0.00153869
-4.56293e-05
0.00153611
-4.49173e-05
0.0015355
-4.11093e-05
0.00153568
-3.61234e-05
0.00153587
-3.12149e-05
0.00153579
-2.65175e-05
0.0015352
-2.20959e-05
0.00153388
-1.80645e-05
0.00153172
-1.44876e-05
0.00152872
-1.15799e-05
0.00152501
-9.50725e-06
0.00152066
-7.95977e-06
0.00151576
-6.77363e-06
0.00151039
-5.90352e-06
0.00150464
-5.33164e-06
0.00149855
-4.96393e-06
0.00149214
-4.61289e-06
0.00148534
-4.06214e-06
0.00147808
-2.92706e-06
0.00146862
3.95206e-06
0.00144758
4.0583e-05
0.00138605
0.000165398
0.00123193
0.000454812
0.000937877
0.000903857
0.000526187
0.00127234
0.000184635
0.00100225
4.34634e-05
0.00033583
2.07991e-05
4.13578e-06
2.7935e-05
-3.75386e-05
-1.06243e-05
0.00154889
-4.38929e-05
0.00154766
-4.3691e-05
0.00154762
-4.1066e-05
0.00154838
-3.68909e-05
0.00154934
-3.21726e-05
0.00155021
-2.7388e-05
0.00155079
-2.26695e-05
0.00155081
-1.80903e-05
0.00155014
-1.38194e-05
0.00154884
-1.02815e-05
0.00154696
-7.61838e-06
0.00154431
-5.31406e-06
0.00154076
-3.2199e-06
0.00153617
-1.31571e-06
0.00153038
4.51775e-07
0.00152322
2.20343e-06
0.00151443
4.1711e-06
0.00150385
6.52282e-06
0.00149166
9.25879e-06
0.00147739
1.82239e-05
0.00145463
6.33399e-05
0.00139785
0.000222177
0.0012548
0.000597863
0.000976663
0.001182
0.000592157
0.00165685
0.000279909
0.0013145
0.000124657
0.000491081
5.99141e-05
6.88789e-05
3.99718e-05
-1.75964e-05
-9.44852e-06
0.00155032
-4.23832e-05
0.00154844
-4.18098e-05
0.00154712
-3.97523e-05
0.00154626
-3.60302e-05
0.00154554
-3.14523e-05
0.00154477
-2.66127e-05
0.00154376
-2.16581e-05
0.00154217
-1.65035e-05
0.00153963
-1.1281e-05
0.00153602
-6.67384e-06
0.00153139
-2.98801e-06
0.00152537
7.05415e-07
0.00151778
4.37819e-06
0.00150832
8.13832e-06
0.00149681
1.19639e-05
0.00148304
1.59785e-05
0.00146678
2.04232e-05
0.00144789
2.54207e-05
0.00142684
3.03078e-05
0.00140695
3.81112e-05
0.00139022
8.00716e-05
0.00135624
0.000256152
0.00124773
0.000706372
0.00100585
0.00142388
0.000671354
0.00199135
0.000423347
0.0015625
0.000297056
0.000617373
0.000184606
0.000181329
8.30854e-05
8.39247e-05
3.39269e-05
0.00153416
-3.73138e-05
0.00152878
-3.64237e-05
0.00152281
-3.37861e-05
0.00151621
-2.94257e-05
0.00150919
-2.44387e-05
0.00150163
-1.90444e-05
0.00149349
-1.35246e-05
0.00148441
-7.41961e-06
0.00147385
-7.19191e-07
0.00146144
5.73198e-06
0.00144686
1.15898e-05
0.00143029
1.72767e-05
0.00141182
2.28458e-05
0.00139127
2.86925e-05
0.0013688
3.44287e-05
0.00134435
4.04352e-05
0.00131788
4.68905e-05
0.00128941
5.389e-05
0.00126014
5.95764e-05
0.0012367
6.15581e-05
0.00123285
8.39154e-05
0.00124448
0.000244527
0.00120579
0.000745055
0.00103627
0.0015934
0.000790267
0.00223735
0.000634904
0.00171787
0.00055691
0.000695367
0.00042044
0.000317798
0.000223406
0.000280959
0.00013227
0.00143434
-2.20144e-05
0.00141777
-1.98582e-05
0.00140056
-1.65746e-05
0.001382
-1.08617e-05
0.00136309
-5.53411e-06
0.00134286
1.18605e-06
0.00132066
8.6788e-06
0.00129683
1.64104e-05
0.00127213
2.3977e-05
0.00124686
3.1e-05
0.00122132
3.71359e-05
0.00119536
4.32289e-05
0.00116886
4.9347e-05
0.00114186
5.56932e-05
0.00111404
6.22537e-05
0.0010853
6.91693e-05
0.00105562
7.65741e-05
0.00102482
8.46849e-05
0.000991795
9.2606e-05
0.00096221
9.11428e-05
0.000971052
7.50736e-05
0.00105233
0.000163254
0.00115565
0.000641735
0.00115481
0.00159424
0.00107403
0.00231813
0.00102056
0.00177134
0.000949543
0.000766382
0.000784756
0.000482585
0.000478747
0.000586968
0.000338655
0.00113565
0.00110497
0.00107379
0.00104378
0.00101466
0.000987548
0.000962939
0.00094049
0.000919491
0.000899013
0.000878079
0.000856309
0.000833393
0.000809197
0.000783648
0.000756812
0.000728922
0.000700197
0.000667447
0.000626365
0.000618235
0.00076671
0.00116066
0.00162508
0.00188165
0.00179573
0.00150812
0.00121657
0.000814804
)
;

boundaryField
{
    walls
    {
        type            calculated;
        value           nonuniform List<scalar> 
100
(
0.000260107
0.000159772
0.000114776
9.09511e-05
7.74829e-05
6.90269e-05
6.23832e-05
5.5407e-05
4.32946e-05
-1.75604e-06
2.1365e-05
2.08077e-05
2.10914e-05
2.31627e-05
2.57976e-05
2.76656e-05
2.91457e-05
3.02343e-05
3.08627e-05
2.95105e-05
8.53166e-06
9.96234e-06
1.36073e-05
1.79544e-05
2.24647e-05
2.71018e-05
3.19508e-05
3.72994e-05
4.32272e-05
4.95828e-05
5.60762e-05
6.28173e-05
6.98933e-05
7.73127e-05
8.50645e-05
9.31821e-05
0.00010155
0.000110431
0.00012242
0.000129597
8.08326e-05
1.21117e-05
0.000241025
0.00111056
0.00204315
0.00186638
0.00107789
0.000774127
0.000966858
0.000603871
9.28154e-06
1.08259e-05
1.46059e-05
1.91415e-05
2.35899e-05
2.82983e-05
3.32884e-05
3.88594e-05
4.49758e-05
5.1478e-05
5.80694e-05
6.49987e-05
7.22634e-05
7.98887e-05
8.7803e-05
9.60058e-05
0.000104464
0.00011341
0.000125356
0.000132225
8.32031e-05
1.47791e-05
0.000247783
0.00112982
0.00206155
0.00185726
0.001054
0.000774132
0.000988733
0.000606535
0.000262544
0.000160403
0.000114844
9.08679e-05
7.73997e-05
6.89331e-05
6.2215e-05
5.50775e-05
4.26975e-05
-2.48841e-06
2.22536e-05
2.18564e-05
2.2155e-05
2.42974e-05
2.68568e-05
2.87217e-05
3.01919e-05
3.12937e-05
3.1925e-05
3.06025e-05
)
;
    }
    topInlet
    {
        type            calculated;
        value           nonuniform List<scalar> 10(-0.000174246 -0.000370232 -0.000799055 -0.0017264 -0.00154049 -0.00154384 -0.00154677 -0.00154938 -0.00155119 -0.00155305);
    }
    bottomInlet
    {
        type            calculated;
        value           nonuniform List<scalar> 10(-0.0015534 -0.00155154 -0.00154974 -0.00154719 -0.00154432 -0.00154106 -0.00172719 -0.000799491 -0.000370418 -0.000174258);
    }
    outlet
    {
        type            calculated;
        value           nonuniform List<scalar> 
20
(
0.000598617
0.00031121
0.000142709
4.40226e-05
3.98083e-05
3.00315e-05
3.72254e-05
1.58447e-05
7.17212e-06
3.30695e-06
3.30634e-06
7.16673e-06
1.58163e-05
3.70536e-05
2.99133e-05
3.87961e-05
3.971e-05
0.000125063
0.000272362
0.000546924
)
;
    }
    frontBack
    {
        type            empty;
        value           nonuniform 0();
    }
}


// ************************************************************************* //
