/*--------------------------------*- C++ -*----------------------------------*\
| =========                 |                                                 |
| \\      /  F ield         | OpenFOAM: The Open Source CFD Toolbox           |
|  \\    /   O peration     | Version:  4.x                                   |
|   \\  /    A nd           | Web:      www.OpenFOAM.org                      |
|    \\/     M anipulation  |                                                 |
\*---------------------------------------------------------------------------*/
FoamFile
{
    version     2.0;
    format      ascii;
    class       volVectorField;
    location    "0.05";
    object      U;
}
// * * * * * * * * * * * * * * * * * * * * * * * * * * * * * * * * * * * * * //

dimensions      [0 1 -1 0 0 0 0];

internalField   nonuniform List<vector> 
800
(
(19.166 0.771115 1.84314e-24)
(18.5157 0.561469 2.48777e-24)
(17.8901 0.39293 1.92729e-24)
(17.3162 0.241147 -1.14087e-27)
(16.8081 0.095069 3.02033e-26)
(16.357 -0.0447351 -2.18973e-30)
(15.9536 -0.172536 0)
(15.6011 -0.282348 -9.09014e-28)
(15.2986 -0.374296 6.0494e-27)
(15.0929 -0.43804 1.46134e-24)
(19.748 0.960601 5.05773e-25)
(19.7186 0.866398 8.41135e-30)
(19.673 0.835449 1.45528e-26)
(19.5775 0.835882 8.00319e-26)
(19.4537 0.841874 5.84208e-25)
(19.3152 0.84341 5.41956e-25)
(19.1717 0.842611 -1.67759e-26)
(19.0145 0.83842 0)
(18.8456 0.83249 0)
(18.6771 0.816266 -6.09959e-25)
(19.7385 0.972089 0)
(19.7758 0.875414 -7.58521e-25)
(19.8324 0.806809 1.43277e-25)
(19.8406 0.745442 5.76191e-25)
(19.8231 0.673695 0)
(19.8006 0.598917 -7.63714e-25)
(19.7786 0.527342 7.70545e-25)
(19.757 0.462894 7.39528e-25)
(19.7352 0.40826 6.76797e-25)
(19.722 0.356792 5.06158e-27)
(19.6867 0.956499 7.38803e-25)
(19.7344 0.858715 -8.7079e-25)
(19.8159 0.79508 4.02474e-25)
(19.8464 0.748313 -6.88715e-26)
(19.8539 0.708312 3.60674e-25)
(19.8632 0.678762 -2.04695e-25)
(19.8771 0.661342 2.27368e-25)
(19.8906 0.653566 1.51332e-26)
(19.8961 0.64921 -3.29189e-27)
(19.8832 0.639102 1.94567e-27)
(19.6304 0.945429 3.17957e-24)
(19.6885 0.848007 -1.62182e-24)
(19.7875 0.788353 7.58162e-25)
(19.8254 0.741772 -4.10706e-25)
(19.8362 0.699174 1.87023e-30)
(19.8481 0.660197 -1.30942e-26)
(19.8628 0.622844 3.40894e-25)
(19.8752 0.585815 1.45685e-26)
(19.8798 0.551152 -3.48095e-25)
(19.8651 0.521878 0)
(19.5707 0.929251 1.85677e-24)
(19.6401 0.837887 1.40354e-25)
(19.7545 0.773324 8.61447e-25)
(19.7959 0.716507 -4.29162e-25)
(19.8055 0.671889 -3.78316e-25)
(19.8134 0.638799 0)
(19.8219 0.612458 0)
(19.8282 0.592717 -1.6824e-25)
(19.8268 0.587251 -3.98754e-27)
(19.7856 0.606289 2.09435e-25)
(19.4948 0.878356 -6.83098e-25)
(19.5519 0.860604 1.65014e-29)
(19.6291 0.806937 9.55481e-25)
(19.6162 0.732643 -1.20454e-24)
(19.5576 0.671458 6.06443e-26)
(19.4782 0.622324 4.60414e-25)
(19.3823 0.579948 3.79182e-25)
(19.2746 0.54626 -3.33695e-25)
(19.1587 0.539152 3.54549e-26)
(18.9594 0.621276 1.4303e-24)
(19.1359 0.678396 0)
(18.5855 0.704718 -1.19109e-29)
(17.8367 0.686468 1.03537e-24)
(16.9876 0.667257 -1.57281e-24)
(16.1419 0.660206 1.60292e-26)
(15.3421 0.646565 4.54248e-25)
(14.597 0.618389 9.23574e-25)
(13.9133 0.577487 -1.14561e-26)
(13.3371 0.543368 0)
(12.8621 0.686541 1.21176e-24)
(16.0926 1.69938 4.2917e-24)
(13.0204 1.56681 -9.42552e-24)
(10.8364 1.32668 3.99729e-24)
(9.41947 1.14802 6.30854e-27)
(8.48346 1.03072 3.76817e-27)
(7.80203 0.944372 -1.16609e-27)
(7.24195 0.866494 -3.04516e-24)
(6.7404 0.779658 0)
(6.29773 0.644989 -1.46781e-27)
(6.02299 0.483237 -5.70763e-29)
(10.0312 2.34203 6.00355e-27)
(6.00836 1.68551 -3.95682e-23)
(4.3471 1.205 -7.45921e-28)
(3.50244 0.947902 -1.15954e-23)
(3.01437 0.804156 -1.71162e-28)
(2.69014 0.713091 -2.73444e-28)
(2.43683 0.640976 -1.43328e-28)
(2.21094 0.566201 -7.14622e-24)
(1.98633 0.444877 1.72457e-28)
(1.73177 0.175419 -4.26461e-29)
(9.91841 -2.34846 6.3898e-23)
(5.91159 -1.68256 1.87172e-27)
(4.27117 -1.19885 2.89753e-23)
(3.4401 -0.941689 -1.16029e-23)
(2.96047 -0.798751 1.71498e-28)
(2.64082 -0.708048 2.72198e-28)
(2.38988 -0.63556 1.41191e-28)
(2.16544 -0.559627 7.11211e-24)
(1.94324 -0.436541 -1.76844e-28)
(1.6966 -0.167624 4.25327e-29)
(16.0123 -1.71401 4.49428e-24)
(12.9155 -1.57731 -9.77086e-24)
(10.7304 -1.3308 4.10231e-24)
(9.31887 -1.14875 -1.3032e-26)
(8.38732 -1.03019 -3.82392e-27)
(7.70745 -0.94289 1.19153e-27)
(7.14684 -0.863658 -3.09327e-24)
(6.64413 -0.774758 0)
(6.20181 -0.637137 1.49726e-27)
(5.9319 -0.474581 5.52415e-29)
(19.1088 -0.669724 0)
(18.5417 -0.700297 -1.23516e-29)
(17.7735 -0.683939 1.03677e-24)
(16.9049 -0.665219 -1.57904e-24)
(16.0422 -0.65807 -1.65369e-26)
(15.2286 -0.643779 4.29682e-25)
(14.4725 -0.614627 9.50886e-25)
(13.7804 -0.572687 1.18966e-26)
(13.1999 -0.538076 0)
(12.7269 -0.68419 1.24064e-24)
(19.4818 -0.872925 1.51979e-24)
(19.5413 -0.85424 3.57304e-25)
(19.6201 -0.799123 9.86241e-25)
(19.6055 -0.72327 -1.47344e-24)
(19.5433 -0.661068 -6.20879e-26)
(19.4596 -0.611468 4.67893e-25)
(19.359 -0.568978 4.40678e-25)
(19.2464 -0.53553 -3.02081e-25)
(19.1253 -0.52943 0)
(18.9194 -0.614228 1.47057e-24)
(19.5601 -0.925781 1.91226e-24)
(19.6321 -0.832524 -1.45769e-25)
(19.7498 -0.767281 3.76303e-28)
(19.7922 -0.709951 -3.36098e-28)
(19.8018 -0.665063 -3.1546e-26)
(19.8096 -0.631897 3.00671e-25)
(19.8181 -0.605553 0)
(19.8245 -0.586043 -1.63976e-25)
(19.8229 -0.581509 4.21705e-27)
(19.7803 -0.60219 2.1474e-25)
(19.6213 -0.942805 6.5057e-26)
(19.6815 -0.843207 -1.77446e-24)
(19.7836 -0.782525 1.90316e-29)
(19.8226 -0.735266 -7.23186e-30)
(19.8336 -0.692054 3.75637e-25)
(19.8458 -0.652239 3.65912e-25)
(19.8609 -0.613622 3.71561e-25)
(19.8735 -0.574936 0)
(19.8781 -0.538916 -3.65282e-25)
(19.8636 -0.51007 0)
(19.6788 -0.954458 7.55249e-25)
(19.7282 -0.854401 -9.89557e-25)
(19.8124 -0.789429 4.09273e-25)
(19.8438 -0.742207 6.10178e-30)
(19.8516 -0.70268 3.12542e-25)
(19.8617 -0.67406 -2.48811e-25)
(19.8767 -0.657705 1.78379e-25)
(19.891 -0.650357 -1.49853e-26)
(19.896 -0.646361 3.19366e-27)
(19.8817 -0.63543 -2.34577e-27)
(19.7318 -0.970799 0)
(19.7707 -0.87177 -9.58012e-25)
(19.8291 -0.800584 -1.47277e-25)
(19.8372 -0.73638 6.06483e-25)
(19.8189 -0.662599 0)
(19.7961 -0.586122 -7.86455e-25)
(19.7746 -0.513627 7.8728e-25)
(19.7533 -0.449817 7.38187e-25)
(19.732 -0.396037 6.65975e-25)
(19.7189 -0.343724 -5.29069e-27)
(19.7415 -0.959553 5.06648e-25)
(19.7134 -0.865181 8.93505e-30)
(19.669 -0.83587 -1.56167e-25)
(19.5727 -0.838319 2.28769e-25)
(19.4468 -0.844652 4.19586e-25)
(19.3069 -0.845919 5.25633e-25)
(19.1605 -0.84441 1.65532e-26)
(18.9999 -0.840051 0)
(18.8287 -0.833918 0)
(18.6585 -0.81857 -6.49991e-25)
(19.1511 -0.76493 3.38775e-24)
(18.4951 -0.546394 2.56137e-24)
(17.8651 -0.372345 2.03428e-24)
(17.2887 -0.216871 -1.82693e-24)
(16.7782 -0.0675802 -3.51071e-24)
(16.3251 0.0746738 -3.43689e-24)
(15.9214 0.203711 0)
(15.5703 0.314403 8.62135e-28)
(15.2694 0.406246 -6.06612e-27)
(15.0646 0.468998 2.9471e-24)
(14.7834 -0.418621 0)
(14.3738 -0.421265 0)
(13.9615 -0.452374 0)
(13.5653 -0.500415 0)
(13.1854 -0.559206 0)
(12.8182 -0.623262 0)
(12.4845 -0.68008 0)
(12.1808 -0.725438 0)
(11.9011 -0.761251 0)
(11.6358 -0.785251 0)
(11.3712 -0.797845 0)
(11.0981 -0.802087 0)
(10.8119 -0.799646 0)
(10.5102 -0.793179 0)
(10.1922 -0.783924 0)
(9.85916 -0.771639 0)
(9.51164 -0.756574 0)
(9.15523 -0.740858 0)
(8.79833 -0.729766 0)
(8.3283 -0.669086 0)
(7.6959 -0.414635 0)
(8.14568 -0.28716 0)
(11.7027 -1.52475 0)
(18.27 -4.66892 0)
(23.7118 -7.54952 0)
(24.7506 -6.90543 0)
(21.7363 -4.23682 0)
(17.6927 -3.00299 0)
(14.5233 -3.48018 0)
(7.48544 -2.52538 0)
(18.4887 0.737115 0)
(18.272 0.657158 0)
(18.0487 0.583729 0)
(17.8217 0.520137 0)
(17.5838 0.464464 0)
(17.3376 0.415138 0)
(17.0675 0.368459 0)
(16.7737 0.327758 0)
(16.4598 0.29769 0)
(16.1361 0.273714 0)
(15.8076 0.255335 0)
(15.4745 0.240259 0)
(15.136 0.227258 0)
(14.7909 0.216674 0)
(14.4382 0.207714 0)
(14.0763 0.198251 0)
(13.7038 0.189026 0)
(13.321 0.179783 0)
(12.9216 0.176823 0)
(12.4848 0.172774 0)
(12.1907 0.0769943 0)
(12.7443 -0.170527 0)
(14.3462 -0.39256 0)
(15.4077 -0.569156 0)
(14.372 -0.50607 0)
(13.2762 0.246208 0)
(13.0667 0.921521 0)
(11.6971 0.844032 0)
(9.03027 0.979608 0)
(4.07411 0.931967 0)
(19.6776 0.31673 0)
(19.611 0.270875 0)
(19.5353 0.216153 0)
(19.455 0.150023 0)
(19.3686 0.0800571 0)
(19.2752 0.0129654 0)
(19.174 -0.0481861 0)
(19.0633 -0.100468 0)
(18.94 -0.139156 0)
(18.7955 -0.166396 0)
(18.6247 -0.188403 0)
(18.4259 -0.204742 0)
(18.2005 -0.2162 0)
(17.9498 -0.222674 0)
(17.6736 -0.224717 0)
(17.3724 -0.224525 0)
(17.0464 -0.224337 0)
(16.6957 -0.223173 0)
(16.3231 -0.221051 0)
(15.9529 -0.214096 0)
(15.7226 -0.197611 0)
(15.8819 -0.341507 0)
(16.0617 -0.880334 0)
(15.0244 -1.87831 0)
(11.772 -2.70823 0)
(8.57997 -2.39701 0)
(7.78629 -1.45722 0)
(6.79981 -0.916089 0)
(4.53942 -0.935493 0)
(1.75633 -0.737918 0)
(19.8597 0.599308 0)
(19.8339 0.541803 0)
(19.812 0.471437 0)
(19.7976 0.397012 0)
(19.7884 0.329359 0)
(19.7796 0.274365 0)
(19.7682 0.233036 0)
(19.7518 0.203665 0)
(19.7269 0.18206 0)
(19.6889 0.167545 0)
(19.6363 0.154059 0)
(19.5694 0.141781 0)
(19.4844 0.131436 0)
(19.3775 0.121622 0)
(19.2457 0.110891 0)
(19.0856 0.099389 0)
(18.8948 0.0853389 0)
(18.6713 0.0707868 0)
(18.414 0.058962 0)
(18.1392 0.0386016 0)
(17.9067 -0.0524842 0)
(17.705 -0.268079 0)
(17.0658 -0.698595 0)
(15.116 -1.38255 0)
(10.9265 -1.92443 0)
(6.36392 -1.48506 0)
(4.5513 -0.412854 0)
(3.36846 0.150438 0)
(1.70405 0.439993 0)
(0.594899 0.392333 0)
(19.8426 0.487986 0)
(19.8192 0.430839 0)
(19.8082 0.357679 0)
(19.813 0.283874 0)
(19.8268 0.218448 0)
(19.841 0.162413 0)
(19.8514 0.114246 0)
(19.8562 0.0720699 0)
(19.8533 0.0343248 0)
(19.8414 0.00143755 0)
(19.8208 -0.0227929 0)
(19.792 -0.0401941 0)
(19.7538 -0.0515686 0)
(19.7038 -0.0579603 0)
(19.6398 -0.0611016 0)
(19.5597 -0.0620393 0)
(19.4608 -0.0604656 0)
(19.34 -0.0577205 0)
(19.1966 -0.0558057 0)
(19.0325 -0.0551485 0)
(18.8275 -0.0907606 0)
(18.4351 -0.238414 0)
(17.3861 -0.566325 0)
(14.9888 -1.10832 0)
(10.3077 -1.54871 0)
(4.92195 -1.23959 0)
(2.32191 -0.532315 0)
(1.1483 -0.219172 0)
(0.574918 -0.222539 0)
(0.479693 -0.202305 0)
(19.7333 0.573866 0)
(19.6838 0.4981 0)
(19.6594 0.402746 0)
(19.6593 0.316451 0)
(19.6677 0.246456 0)
(19.6727 0.190179 0)
(19.6704 0.146044 0)
(19.6597 0.113303 0)
(19.6393 0.0909066 0)
(19.6081 0.078108 0)
(19.5667 0.0731796 0)
(19.5168 0.0724058 0)
(19.4596 0.072612 0)
(19.3959 0.0720886 0)
(19.3267 0.0705116 0)
(19.2525 0.0678519 0)
(19.1739 0.0638826 0)
(19.0906 0.058789 0)
(19.0022 0.0522872 0)
(18.9054 0.0328648 0)
(18.7504 -0.0229028 0)
(18.3358 -0.150654 0)
(17.1764 -0.402302 0)
(14.6167 -0.804585 0)
(9.66851 -1.12229 0)
(3.82302 -0.887108 0)
(0.966136 -0.30101 0)
(0.294321 0.0796079 0)
(0.304709 0.203245 0)
(0.385376 0.136792 0)
(18.7938 0.629585 0)
(18.6521 0.541967 0)
(18.5732 0.42882 0)
(18.5384 0.337535 0)
(18.5126 0.267935 0)
(18.482 0.213611 0)
(18.4456 0.171572 0)
(18.4045 0.139166 0)
(18.3592 0.113364 0)
(18.3109 0.0917228 0)
(18.2625 0.072988 0)
(18.2175 0.0563953 0)
(18.1787 0.041875 0)
(18.1475 0.0297762 0)
(18.1245 0.0201451 0)
(18.1102 0.0126306 0)
(18.1044 0.00716771 0)
(18.1063 0.00307946 0)
(18.1143 -0.000436434 0)
(18.1207 -0.00524699 0)
(18.0734 -0.0216001 0)
(17.76 -0.0901046 0)
(16.6724 -0.240571 0)
(14.0994 -0.490834 0)
(8.9879 -0.675749 0)
(2.96981 -0.506805 0)
(0.302973 -0.172468 0)
(0.0316433 -0.078827 0)
(0.249445 -0.0701982 0)
(0.407161 -0.0586864 0)
(13.0215 0.763612 0)
(13.2506 0.613377 0)
(13.5972 0.456012 0)
(13.9857 0.343971 0)
(14.3496 0.262418 0)
(14.6793 0.202254 0)
(14.9824 0.158275 0)
(15.2635 0.125757 0)
(15.5249 0.101071 0)
(15.768 0.0819845 0)
(15.9955 0.0673748 0)
(16.2101 0.0562996 0)
(16.4132 0.0477343 0)
(16.6051 0.0408018 0)
(16.7861 0.0349253 0)
(16.9564 0.0297879 0)
(17.1166 0.025322 0)
(17.2666 0.0213677 0)
(17.4061 0.0176694 0)
(17.5277 0.0122136 0)
(17.5773 -0.00243554 0)
(17.3393 -0.0362549 0)
(16.2792 -0.103125 0)
(13.621 -0.212537 0)
(8.30331 -0.281805 0)
(2.40767 -0.20334 0)
(0.147509 -0.0758196 0)
(0.0109892 0.00297727 0)
(0.239075 0.03283 0)
(0.385066 0.0195808 0)
(8.29032 0.54801 0)
(9.66022 0.345464 0)
(10.8099 0.226413 0)
(11.7707 0.160009 0)
(12.5519 0.116651 0)
(13.2 0.0875351 0)
(13.7527 0.0676318 0)
(14.2333 0.0534769 0)
(14.6565 0.042981 0)
(15.0326 0.0349065 0)
(15.3709 0.0286871 0)
(15.6787 0.0239676 0)
(15.9611 0.0202685 0)
(16.221 0.0171654 0)
(16.4607 0.0144308 0)
(16.6818 0.0119663 0)
(16.8858 0.00985409 0)
(17.0737 0.00801704 0)
(17.2459 0.00632859 0)
(17.3954 0.00398687 0)
(17.4663 -0.00141735 0)
(17.2363 -0.0146154 0)
(16.1587 -0.0413662 0)
(13.4287 -0.0833403 0)
(8.00131 -0.103932 0)
(2.19456 -0.0753585 0)
(0.107807 -0.0390812 0)
(0.011526 -0.014867 0)
(0.238236 0.00610464 0)
(0.378364 0.0039469 0)
(6.89166 0.191287 0)
(8.79933 0.0937986 0)
(10.2169 0.060434 0)
(11.3323 0.043578 0)
(12.2139 0.0326213 0)
(12.9323 0.0253037 0)
(13.5365 0.0202971 0)
(14.0561 0.0167429 0)
(14.5095 0.014075 0)
(14.9097 0.0118744 0)
(15.2674 0.0100775 0)
(15.5912 0.00874907 0)
(15.887 0.00773083 0)
(16.1582 0.00680042 0)
(16.4075 0.00584941 0)
(16.637 0.00485896 0)
(16.8482 0.00397611 0)
(17.0423 0.00317651 0)
(17.2197 0.00244466 0)
(17.3737 0.00156378 0)
(17.4473 -0.000180765 0)
(17.2156 -0.00424084 0)
(16.1278 -0.0124614 0)
(13.3695 -0.0225265 0)
(7.90394 -0.0209344 0)
(2.13171 -0.0173667 0)
(0.0973176 -0.0230532 0)
(0.0125469 -0.0161929 0)
(0.238499 0.00348322 0)
(0.376438 0.00303192 0)
(6.87771 -0.18056 0)
(8.78705 -0.0819118 0)
(10.2066 -0.0483314 0)
(11.3236 -0.0317733 0)
(12.2064 -0.0212649 0)
(12.9257 -0.0144334 0)
(13.5306 -0.00986298 0)
(14.0508 -0.00661596 0)
(14.5046 -0.00427276 0)
(14.9053 -0.00272184 0)
(15.2634 -0.00169108 0)
(15.5876 -0.000844481 0)
(15.8837 -0.000137442 0)
(16.1552 0.000331817 0)
(16.4048 0.000526365 0)
(16.6345 0.000477288 0)
(16.846 0.000373528 0)
(17.0404 0.000225403 0)
(17.218 9.14676e-05 0)
(17.3723 0.000120331 0)
(17.446 0.000651074 0)
(17.2143 0.00237674 0)
(16.1261 0.00590654 0)
(13.366 0.0162126 0)
(7.89833 0.0318071 0)
(2.12927 0.0192224 0)
(0.0969073 -0.0130683 0)
(0.012502 -0.0167175 0)
(0.238525 0.00230942 0)
(0.376368 0.00272346 0)
(8.22325 -0.537578 0)
(9.60287 -0.332978 0)
(10.7618 -0.213827 0)
(11.7299 -0.147854 0)
(12.5168 -0.105024 0)
(13.1692 -0.0764558 0)
(13.7255 -0.0570325 0)
(14.2089 -0.0432172 0)
(14.6344 -0.0330779 0)
(15.0127 -0.0256863 0)
(15.3529 -0.020259 0)
(15.6624 -0.0160367 0)
(15.9463 -0.0126527 0)
(16.2076 -0.0100051 0)
(16.4485 -0.00801728 0)
(16.6709 -0.00658221 0)
(16.8762 -0.00544951 0)
(17.0653 -0.00455901 0)
(17.2385 -0.00373959 0)
(17.3891 -0.00225232 0)
(17.4608 0.00187342 0)
(17.2309 0.0126986 0)
(16.1518 0.0347118 0)
(13.4148 0.0769856 0)
(7.9787 0.114752 0)
(2.18434 0.0771252 0)
(0.106026 0.00285941 0)
(0.0113502 -0.0183855 0)
(0.238341 0.000198934 0)
(0.378073 0.00203041 0)
(12.8983 -0.761436 0)
(13.1385 -0.608183 0)
(13.4964 -0.448728 0)
(13.8954 -0.335584 0)
(14.2682 -0.253475 0)
(14.6055 -0.193112 0)
(14.9151 -0.149097 0)
(15.202 -0.11656 0)
(15.4683 -0.092016 0)
(15.7162 -0.0735353 0)
(15.9482 -0.0597422 0)
(16.1669 -0.0492571 0)
(16.3736 -0.0411058 0)
(16.5688 -0.0346669 0)
(16.753 -0.0294973 0)
(16.9267 -0.0252544 0)
(17.0902 -0.0215557 0)
(17.2433 -0.0183084 0)
(17.3857 -0.0152604 0)
(17.5099 -0.0104867 0)
(17.5618 0.00300596 0)
(17.3245 0.0344269 0)
(16.2614 0.0967234 0)
(13.5873 0.206608 0)
(8.24899 0.292534 0)
(2.38104 0.204545 0)
(0.14232 0.0389676 0)
(0.0105858 -0.0350208 0)
(0.239305 -0.0264049 0)
(0.384287 -0.0128003 0)
(18.7491 -0.623522 0)
(18.6035 -0.535454 0)
(18.5223 -0.421507 0)
(18.4859 -0.329643 0)
(18.4587 -0.259725 0)
(18.4267 -0.205258 0)
(18.3891 -0.163078 0)
(18.3468 -0.130366 0)
(18.3003 -0.104164 0)
(18.2512 -0.0822328 0)
(18.2025 -0.0631511 0)
(18.1579 -0.0461872 0)
(18.1199 -0.0317767 0)
(18.0899 -0.0204027 0)
(18.0688 -0.0120299 0)
(18.0571 -0.00629795 0)
(18.0546 -0.00265219 0)
(18.0599 -0.000263526 0)
(18.0716 0.0018198 0)
(18.0818 0.00551027 0)
(18.0377 0.0212431 0)
(17.7257 0.0880357 0)
(16.633 0.235045 0)
(14.0327 0.486747 0)
(8.88371 0.686263 0)
(2.91124 0.505308 0)
(0.28786 0.137227 0)
(0.0292397 0.0567752 0)
(0.248816 0.0783815 0)
(0.405798 0.0616608 0)
(19.7265 -0.569374 0)
(19.6754 -0.492344 0)
(19.6497 -0.395563 0)
(19.6487 -0.308229 0)
(19.6561 -0.237719 0)
(19.6599 -0.18132 0)
(19.6565 -0.137317 0)
(19.6443 -0.104978 0)
(19.6221 -0.0836962 0)
(19.5889 -0.0727683 0)
(19.5454 -0.0693942 0)
(19.4931 -0.0689876 0)
(19.4333 -0.0687524 0)
(19.3671 -0.0680621 0)
(19.2956 -0.0667313 0)
(19.2195 -0.0643658 0)
(19.1393 -0.0604518 0)
(19.0548 -0.0554993 0)
(18.9656 -0.0492569 0)
(18.8681 -0.0305188 0)
(18.7122 0.0237186 0)
(18.2951 0.149601 0)
(17.1261 0.398874 0)
(14.532 0.803688 0)
(9.53636 1.13232 0)
(3.74711 0.88157 0)
(0.934567 0.25477 0)
(0.266356 -0.131631 0)
(0.292457 -0.201447 0)
(0.382222 -0.127552 0)
(19.841 -0.476756 0)
(19.817 -0.419625 0)
(19.8054 -0.346085 0)
(19.8099 -0.271909 0)
(19.8235 -0.206308 0)
(19.8376 -0.150011 0)
(19.8479 -0.101204 0)
(19.8523 -0.0579034 0)
(19.8485 -0.0193475 0)
(19.8359 0.0124509 0)
(19.815 0.0352443 0)
(19.7858 0.0503417 0)
(19.7464 0.0590785 0)
(19.6945 0.0637055 0)
(19.6282 0.0653035 0)
(19.5454 0.0643821 0)
(19.4434 0.0618977 0)
(19.3194 0.0588475 0)
(19.1726 0.0562531 0)
(19.0049 0.0550712 0)
(18.7955 0.0905229 0)
(18.3963 0.237423 0)
(17.3324 0.56475 0)
(14.8953 1.11086 0)
(10.1611 1.5584 0)
(4.83884 1.23066 0)
(2.27746 0.500932 0)
(1.0518 0.211867 0)
(0.521602 0.236139 0)
(0.467637 0.203473 0)
(19.8575 -0.595085 0)
(19.8315 -0.537013 0)
(19.8095 -0.466062 0)
(19.795 -0.391465 0)
(19.7858 -0.324468 0)
(19.7776 -0.270239 0)
(19.767 -0.229488 0)
(19.7512 -0.199534 0)
(19.7259 -0.177712 0)
(19.6872 -0.161327 0)
(19.6343 -0.146446 0)
(19.5663 -0.134098 0)
(19.4791 -0.12405 0)
(19.3701 -0.113525 0)
(19.2359 -0.103038 0)
(19.0739 -0.0913354 0)
(18.8815 -0.0783296 0)
(18.6558 -0.0654963 0)
(18.3958 -0.0553165 0)
(18.118 -0.0361463 0)
(17.8807 0.0540164 0)
(17.6702 0.268897 0)
(17.0131 0.700017 0)
(15.0208 1.38989 0)
(10.7756 1.93425 0)
(6.2808 1.46762 0)
(4.51602 0.361045 0)
(3.21681 -0.197971 0)
(1.51746 -0.457292 0)
(0.537523 -0.387462 0)
(19.6738 -0.302537 0)
(19.6063 -0.255364 0)
(19.5298 -0.198901 0)
(19.4485 -0.130868 0)
(19.3615 -0.0608769 0)
(19.2684 0.00593638 0)
(19.1679 0.0666197 0)
(19.0581 0.116574 0)
(18.9352 0.153315 0)
(18.7882 0.180142 0)
(18.6148 0.200721 0)
(18.4144 0.216002 0)
(18.1893 0.226413 0)
(17.939 0.23042 0)
(17.6631 0.231279 0)
(17.3619 0.231007 0)
(17.0353 0.229977 0)
(16.6832 0.22765 0)
(16.308 0.224628 0)
(15.9339 0.216754 0)
(15.6982 0.200043 0)
(15.8488 0.343679 0)
(16.0131 0.884475 0)
(14.9357 1.88822 0)
(11.6274 2.71667 0)
(8.49411 2.38169 0)
(7.73391 1.42617 0)
(6.62781 0.897527 0)
(4.18811 0.956972 0)
(1.53267 0.732681 0)
(18.47 -0.740588 0)
(18.2534 -0.66161 0)
(18.0306 -0.588976 0)
(17.8033 -0.525959 0)
(17.5645 -0.468553 0)
(17.3167 -0.416682 0)
(17.0441 -0.367832 0)
(16.7483 -0.327046 0)
(16.434 -0.29629 0)
(16.1139 -0.271961 0)
(15.7888 -0.253033 0)
(15.4591 -0.237737 0)
(15.1236 -0.225162 0)
(14.7815 -0.216295 0)
(14.4307 -0.207669 0)
(14.0688 -0.198917 0)
(13.6946 -0.189845 0)
(13.3083 -0.180476 0)
(12.9037 -0.177333 0)
(12.461 -0.172687 0)
(12.1611 -0.0770928 0)
(12.7082 0.170014 0)
(14.3032 0.39368 0)
(15.3367 0.575021 0)
(14.2443 0.510185 0)
(13.1651 -0.260388 0)
(12.939 -0.933701 0)
(11.4764 -0.848114 0)
(8.58527 -1.0136 0)
(3.57342 -0.945274 0)
(14.754 0.449808 0)
(14.344 0.452596 0)
(13.932 0.483467 0)
(13.538 0.531507 0)
(13.1589 0.591427 0)
(12.7954 0.655159 0)
(12.4666 0.710272 0)
(12.1683 0.75519 0)
(11.8933 0.789693 0)
(11.6314 0.811657 0)
(11.368 0.823311 0)
(11.0957 0.826616 0)
(10.8099 0.823365 0)
(10.5084 0.817075 0)
(10.1895 0.806391 0)
(9.85342 0.79208 0)
(9.50132 0.77504 0)
(9.13874 0.757128 0)
(8.77393 0.743622 0)
(8.29595 0.680125 0)
(7.66124 0.424556 0)
(8.10808 0.299449 0)
(11.6623 1.54605 0)
(18.2144 4.71857 0)
(23.5545 7.58591 0)
(24.473 6.85888 0)
(21.3326 4.14772 0)
(17.328 2.99823 0)
(14.0313 3.56346 0)
(6.83029 2.53208 0)
)
;

boundaryField
{
    walls
    {
        type            noSlip;
    }
    topInlet
    {
        type            fixedValue;
        value           uniform (19.9726 -1.0467 0);
    }
    bottomInlet
    {
        type            fixedValue;
        value           uniform (19.9726 1.0467 0);
    }
    outlet
    {
        type            zeroGradient;
    }
    frontBack
    {
        type            empty;
    }
}


// ************************************************************************* //
