/*--------------------------------*- C++ -*----------------------------------*\
| =========                 |                                                 |
| \\      /  F ield         | OpenFOAM: The Open Source CFD Toolbox           |
|  \\    /   O peration     | Version:  4.x                                   |
|   \\  /    A nd           | Web:      www.OpenFOAM.org                      |
|    \\/     M anipulation  |                                                 |
\*---------------------------------------------------------------------------*/
FoamFile
{
    version     2.0;
    format      ascii;
    class       volScalarField;
    location    "0.15";
    object      alpha.upper;
}
// * * * * * * * * * * * * * * * * * * * * * * * * * * * * * * * * * * * * * //

dimensions      [0 0 0 0 0 0 0];

internalField   nonuniform List<scalar> 
800
(
0
0
0
0
2.13999e-295
1.24636e-279
2.46762e-268
5.56875e-233
1.1347e-221
1.73358e-212
0
0
0
0
1.22472e-296
3.25517e-281
4.16799e-271
6.94483e-261
1.76832e-250
1.0642e-241
0
0
0
0
1.14903e-297
2.05452e-282
1.74186e-272
1.00855e-261
1.18201e-251
8.77718e-244
0
0
0
0
1.14445e-298
1.40855e-283
8.19537e-274
1.53666e-262
9.56919e-253
2.08495e-245
0
0
0
0
1.11154e-299
9.25473e-285
3.63436e-275
2.32358e-263
8.53468e-254
1.04912e-246
0
0
0
0
1.03872e-300
5.79387e-286
1.52728e-276
3.67258e-264
8.65116e-255
8.43827e-248
0
0
0
0
8.98855e-302
3.44304e-287
6.24077e-278
1.86539e-264
3.3024e-255
3.59641e-248
0
0
0
0
2.14147e-300
2.77995e-283
3.75943e-270
2.29544e-232
1.07426e-219
1.15329e-212
0
0
0
0
2.25027e-258
1.64405e-238
3.30677e-224
1.8017e-185
2.16722e-170
7.23237e-165
0
0
0
0
1.21691e-253
9.13214e-232
2.9649e-216
6.26745e-176
1.76212e-154
3.1022e-125
1
1
1
1
1
1
1
1
1
1
1
1
1
1
1
1
1
1
1
1
1
1
1
1
1
1
1
1
1
1
1
1
1
1
1
1
1
1
1
1
1
1
1
1
1
1
1
1
1
1
1
1
1
1
1
1
1
1
1
1
1
1
1
1
1
1
1
1
1
1
1
1
1
1
1
1
1
1
1
1
1
1
1
1
1
1
1
1
1
1
1
1
1
1
1
1
1
1
1
1
8.44162e-212
4.5588e-211
3.26761e-195
2.66467e-174
1.46567e-155
1.26805e-134
9.0427e-120
4.13452e-107
5.03061e-96
3.29575e-86
1.96279e-77
1.42175e-69
1.57057e-62
3.20407e-56
1.41368e-50
1.5423e-45
4.7136e-41
4.47319e-37
1.46863e-33
1.84034e-30
1.01042e-27
2.47138e-25
2.45168e-23
5.55281e-22
7.15299e-21
6.37724e-20
4.30103e-19
2.32353e-18
1.00081e-17
5.34627e-17
2.99024e-213
2.59439e-212
1.74689e-196
9.67474e-176
2.86898e-157
1.31137e-137
8.39135e-137
1.98654e-134
1.88062e-120
5.07024e-108
6.03581e-97
5.68533e-87
5.29069e-78
5.92508e-70
9.58949e-63
2.66462e-56
1.50221e-50
1.96284e-45
6.85872e-41
7.20816e-37
2.68736e-33
3.65789e-30
1.40779e-27
5.63015e-26
1.20453e-24
1.75149e-23
8.30538e-22
7.88122e-21
3.95914e-20
1.48718e-19
1.52426e-214
1.86457e-213
1.3332e-197
6.20895e-177
1.48418e-158
5.21584e-139
5.33308e-138
1.04077e-135
2.87317e-122
3.961e-120
1.25863e-108
6.78323e-98
3.65721e-88
2.3204e-79
2.34167e-71
4.14177e-64
1.45104e-57
1.10282e-51
2.05319e-46
1.0324e-41
1.64472e-37
8.37265e-34
9.03664e-31
5.11842e-29
1.53069e-27
3.14027e-26
5.93624e-21
5.13847e-20
2.00839e-19
3.50817e-19
8.59211e-216
1.39398e-214
1.12676e-198
4.54214e-178
9.10758e-160
2.62261e-140
3.79133e-139
8.02884e-137
1.50712e-123
4.39069e-121
8.26943e-110
1.36917e-99
2.44056e-92
1.84874e-83
2.61831e-75
7.35909e-68
4.09533e-61
5.41074e-55
1.8726e-49
1.83319e-44
5.83127e-40
5.91126e-36
1.11546e-32
7.26775e-31
2.54182e-29
7.97821e-28
9.4335e-20
6.99744e-19
2.37178e-18
4.01957e-18
5.01189e-217
1.04735e-215
9.81529e-200
3.38995e-179
5.68635e-161
1.34642e-141
2.56691e-140
6.4589e-138
8.94317e-125
5.72926e-122
8.34575e-111
9.84005e-101
5.45489e-93
2.33035e-84
2.39329e-76
4.85158e-69
3.27962e-62
4.9094e-56
1.82986e-50
1.94124e-45
6.84132e-41
8.58724e-37
1.91527e-33
1.23601e-31
4.3426e-30
4.81218e-28
2.79293e-18
1.66614e-17
4.73205e-17
7.70334e-17
3.05883e-218
7.99065e-217
8.75384e-201
2.53887e-180
3.53343e-162
6.86944e-143
1.67642e-141
5.47275e-139
5.84224e-126
1.00695e-122
1.15401e-111
-4.01009e-102
-1.31967e-91
-1.04809e-82
-7.22641e-75
-6.77246e-68
-6.77747e-62
8.58373e-56
4.77763e-50
5.17279e-45
1.65735e-40
1.69809e-36
2.96418e-33
1.59935e-31
4.91769e-30
2.05481e-27
1.94451e-16
8.3288e-16
1.8699e-15
2.72462e-15
1.97222e-219
6.43099e-218
8.61306e-202
2.04995e-181
2.35356e-163
3.76847e-144
1.26052e-142
7.43152e-140
6.2412e-127
-7.4602e-117
-1.18937e-105
-2.55958e-95
-4.97556e-86
-1.06245e-77
-2.244e-70
-8.06139e-64
-6.21388e-58
-8.50857e-53
-2.68107e-48
-1.80615e-44
2.25619e-40
1.20353e-35
2.38339e-32
1.1982e-30
3.2616e-29
3.41192e-26
2.51737e-14
2.75935e-14
2.69746e-14
2.77237e-14
4.26456e-212
1.50208e-211
2.79283e-195
7.23593e-180
1.24158e-163
1.24994e-144
-7.12072e-135
-2.88592e-124
-1.01553e-112
-5.43537e-103
-3.48786e-94
-6.23089e-86
-2.54022e-78
-2.42167e-71
-4.48725e-65
-2.38397e-59
-4.35966e-54
-1.99716e-49
-3.03596e-45
-1.82955e-41
-4.19637e-38
-2.5181e-35
2.39564e-33
2.3979e-33
2.90609e-33
-1.74401e-12
-4.65192e-12
1.10905e-13
1.53223e-13
1.68075e-13
1.50157e-164
2.98274e-164
6.72429e-164
6.60332e-159
1.32918e-150
-1.79441e-135
-2.06931e-123
-1.64253e-114
-1.46849e-105
-3.44103e-97
-2.16271e-89
-5.11023e-82
-4.62333e-75
-1.49543e-68
-1.29525e-62
-4.09668e-57
-5.60843e-52
-2.01425e-47
-2.97601e-43
-2.44182e-39
-7.14463e-36
-1.86302e-32
-4.1126e-29
-4.84744e-10
-1.83789e-09
-3.92632e-09
-5.87135e-09
5.30774e-10
8.59391e-10
9.31932e-10
2.0216e-134
3.43124e-135
6.64597e-136
1.37519e-136
2.85197e-137
5.76273e-138
-2.18333e-120
-4.72181e-112
-2.92397e-103
-3.32363e-95
-1.15961e-87
-1.69484e-80
-1.04604e-73
-2.56282e-67
-1.81599e-61
-5.11696e-56
-6.68726e-51
-2.27137e-46
-3.33276e-42
-2.90931e-38
-8.80485e-35
0.000435895
0.00201342
0.00487445
0.0089557
0.0143786
0.0203006
0.026643
0.0326461
0.0426612
0.995259
0.990024
0.984478
0.979105
0.973733
0.968271
0.96264
0.956711
0.950377
0.94379
0.937227
0.930491
0.92336
0.915866
0.908289
0.901193
0.894791
0.889225
0.884685
0.881176
0.880045
0.880926
0.882831
0.885584
0.889054
0.893301
0.897647
0.902076
0.906099
0.912499
1
1
1
1
1
1
1
1
1
1
1
1
1
1
1
1
1
1
1
1
1
1
1
1
1
1
1
1
1
1
1
1
1
1
1
1
1
1
1
1
1
1
1
1
1
1
1
1
1
1
1
1
1
1
1
1
1
1
1
1
1
1
1
1
1
1
1
1
1
1
1
1
1
1
1
1
1
1
1
1
1
1
1
1
1
1
1
1
1
1
1
1
1
1
1
1
1
1
1
1
1
1
1
1
1
1
1
1
1
1
1
1
1
1
1
1
1
1
1
1
1
1
1
1
1
1
1
1
1
1
1
1
1
1
1
1
1
1
1
1
1
1
1
1
1
1
1
1
1
1
1
1
1
1
1
1
1
1
1
1
1
1
1
1
1
1
1
1
1
1
1
1
1
1
1
1
1
1
1
1
1
1
1
1
1
1
1
1
1
1
1
1
1
1
1
1
1
1
1
1
1
1
1
1
1
1
1
1
1
1
1
1
1
1
1
1
1
1
1
1
1
1
1
1
1
1
1
1
1
1
1
1
1
1
1
1
1
1
1
1
1
1
1
1
1
1
1
1
1
1
1
1
1
1
1
1
1
1
1
1
1
1
1
1
1
1
1
1
1
1
)
;

boundaryField
{
    walls
    {
        type            zeroGradient;
    }
    topInlet
    {
        type            fixedValue;
        value           uniform 1;
    }
    bottomInlet
    {
        type            fixedValue;
        value           uniform 0;
    }
    outlet
    {
        type            inletOutlet;
        inletValue      uniform 0;
        value           nonuniform List<scalar> 
20
(
5.34627e-17
1.48718e-19
3.50817e-19
4.01957e-18
7.70334e-17
2.72462e-15
2.77237e-14
1.68075e-13
9.31932e-10
0.0426612
0.912499
1
1
1
1
1
1
1
1
1
)
;
    }
    frontBack
    {
        type            empty;
    }
}


// ************************************************************************* //
