/*--------------------------------*- C++ -*----------------------------------*\
| =========                 |                                                 |
| \\      /  F ield         | OpenFOAM: The Open Source CFD Toolbox           |
|  \\    /   O peration     | Version:  4.x                                   |
|   \\  /    A nd           | Web:      www.OpenFOAM.org                      |
|    \\/     M anipulation  |                                                 |
\*---------------------------------------------------------------------------*/
FoamFile
{
    version     2.0;
    format      ascii;
    class       surfaceScalarField;
    location    "0.15";
    object      alphaPhi;
}
// * * * * * * * * * * * * * * * * * * * * * * * * * * * * * * * * * * * * * //

dimensions      [0 3 -1 0 0 0 0];

internalField   nonuniform List<scalar> 
1530
(
0
0
0
0
0
0
0
0
2.77209e-298
2.47222e-300
1.57275e-282
7.26312e-285
3.04092e-271
1.00178e-274
6.71918e-236
-3.12232e-266
1.34439e-224
-1.60492e-255
-1.48622e-246
2.027e-215
0
0
0
0
0
0
0
0
1.85523e-299
2.69126e-301
4.8955e-284
5.44545e-286
6.21905e-274
5.09461e-276
1.02722e-263
5.8903e-266
2.59175e-253
7.75262e-256
6.44828e-248
1.54425e-244
0
0
0
0
0
0
0
0
1.77868e-300
2.68584e-302
3.17694e-285
3.77909e-287
2.69028e-275
2.44776e-277
1.55596e-264
1.02855e-266
1.82141e-254
7.34072e-257
1.78723e-249
1.35126e-246
0
0
0
0
0
0
0
0
1.77586e-301
2.5541e-303
2.18716e-286
2.44148e-288
1.27337e-276
1.07009e-278
2.38875e-265
1.45249e-267
1.48724e-255
6.25046e-258
8.83166e-251
3.23583e-248
0
0
0
0
0
0
0
0
1.72336e-302
2.32342e-304
1.43598e-287
1.49427e-289
5.64255e-278
4.40475e-280
3.6089e-266
2.05535e-268
1.32533e-256
5.81758e-259
6.70438e-252
1.6269e-249
0
0
0
0
0
0
0
0
1.6078e-303
2.03388e-305
8.97248e-289
8.91789e-291
2.36586e-279
1.78217e-281
5.69004e-267
3.15144e-269
1.33956e-257
6.68714e-260
1.02542e-252
1.30174e-250
0
0
0
0
0
0
0
0
1.54067e-304
2.25175e-306
5.87486e-290
7.9644e-292
1.05915e-280
1.29951e-282
3.14777e-267
3.40785e-269
5.53743e-258
6.0752e-260
1.26383e-252
5.94774e-251
0
0
0
0
0
0
0
0
1.37427e-303
1.25338e-304
1.69632e-286
1.51987e-287
2.18386e-273
1.88421e-274
1.27389e-235
1.01465e-236
5.77202e-223
3.87385e-224
5.24084e-217
6.07785e-216
0
0
0
0
0
0
0
0
3.47027e-262
1.66262e-262
2.34149e-242
1.09276e-242
4.37438e-228
1.99251e-228
2.21794e-189
9.61861e-190
2.55396e-174
8.95451e-175
1.73381e-169
1.00757e-168
0
0
0
0
3.05725e-258
2.06062e-236
6.05964e-221
1.15437e-180
2.89755e-159
1.30834e-129
7.04476e-05
-0.000158748
4.49239e-05
-0.000134881
3.40074e-05
-0.000103928
2.82084e-05
-8.50681e-05
2.46694e-05
-7.38596e-05
2.21414e-05
-6.6404e-05
2.00317e-05
-6.01041e-05
1.80295e-05
-5.3074e-05
1.60998e-05
-4.0766e-05
-2.3385e-05
4.19753e-05
0.000279033
-6.75482e-05
0.000223887
-7.97348e-05
0.000189918
-6.9959e-05
0.00016771
-6.28598e-05
0.000152412
-5.85611e-05
0.000140627
-5.46193e-05
0.000130474
-4.99517e-05
0.000121285
-4.38846e-05
0.000116087
-3.55678e-05
-4.51497e-05
0.000137852
0.000778393
-4.68838e-05
0.00074094
-4.22821e-05
0.000706506
-3.55252e-05
0.00067149
-2.78432e-05
0.000637392
-2.44637e-05
0.000605346
-2.25731e-05
0.000575652
-2.02575e-05
0.000549463
-1.76958e-05
0.000531816
-1.79207e-05
-3.50855e-05
0.000521752
0.00173007
-5.05502e-05
0.00172577
-3.79838e-05
0.00172187
-3.16277e-05
0.00171837
-2.43426e-05
0.00171258
-1.86743e-05
0.00170445
-1.44428e-05
0.00169488
-1.06808e-05
0.00168476
-7.57511e-06
0.00167363
-6.79811e-06
-1.1448e-05
0.00165
0.00154247
-5.25271e-05
0.00154413
-3.9639e-05
0.00154475
-3.22541e-05
0.00154622
-2.5807e-05
0.00154755
-2.0011e-05
0.00154831
-1.5202e-05
0.00154877
-1.11367e-05
0.00154904
-7.8459e-06
0.00154808
-5.8406e-06
-5.5287e-06
0.00154216
0.001545
-5.3693e-05
0.00154658
-4.12139e-05
0.00154749
-3.31661e-05
0.00154877
-2.70889e-05
0.00155023
-2.1467e-05
0.00155145
-1.64274e-05
0.00155242
-1.20998e-05
0.00155302
-8.45044e-06
0.00155273
-5.5544e-06
-3.41631e-06
0.00155062
0.00154775
-5.46707e-05
0.00154885
-4.2307e-05
0.00154953
-3.3845e-05
0.00155043
-2.79925e-05
0.00155155
-2.25903e-05
0.0015527
-1.75725e-05
0.00155378
-1.3183e-05
0.00155456
-9.22799e-06
0.00155408
-5.07732e-06
-1.16507e-06
0.00155183
0.00155061
-5.59035e-05
0.00155057
-4.22663e-05
0.00154995
-3.32239e-05
0.00154903
-2.70751e-05
0.00154763
-2.11842e-05
0.00154596
-1.59108e-05
0.00154422
-1.14355e-05
0.00154245
-7.46249e-06
0.00154075
-3.37309e-06
3.47236e-07
0.00153923
0.00154854
-5.32483e-05
0.00154115
-3.48761e-05
0.0015335
-2.55715e-05
0.00152472
-1.82975e-05
0.00151424
-1.0706e-05
0.00150317
-4.84394e-06
0.00149106
6.81856e-07
0.0014779
5.68986e-06
0.00146428
1.02507e-05
1.49908e-05
0.00144964
0.00147754
0.00142081
0.00137308
0.00133048
0.00129292
0.00125935
0.00122984
0.00120424
0.00118257
0.00116695
9.60614e-215
1.92249e-216
5.04789e-214
9.43799e-216
3.51614e-198
5.7565e-200
2.78678e-177
3.27174e-179
1.49003e-158
9.88302e-161
1.2543e-137
4.56822e-141
8.71857e-123
-5.83291e-142
3.8918e-110
-2.86825e-139
4.62804e-99
-4.11995e-125
2.96389e-89
-1.46599e-112
1.72394e-80
-2.11739e-101
1.2177e-72
-2.33042e-91
1.30914e-65
-2.4843e-82
2.59328e-59
-3.14853e-74
1.10828e-53
-5.72111e-67
1.16817e-48
-1.77567e-60
3.44038e-44
-1.11239e-54
3.13844e-40
-1.6113e-49
9.88221e-37
-6.22499e-45
1.18518e-33
-7.21929e-41
6.2161e-31
-2.96157e-37
1.44922e-28
-4.41746e-34
1.36831e-26
-1.80174e-31
2.96099e-25
-6.96529e-30
3.65865e-24
-1.46102e-28
3.13914e-23
-2.08445e-27
2.04204e-22
-9.69365e-26
1.06942e-21
-8.96522e-25
4.39142e-21
-4.55232e-24
-1.00578e-23
4.29339e-216
1.13807e-217
3.68195e-215
9.67963e-217
2.44906e-199
6.08937e-201
1.33856e-178
2.96725e-180
3.91504e-160
7.37082e-162
1.7632e-140
2.67849e-142
1.10985e-139
1.25744e-141
2.5801e-137
1.86342e-139
2.39591e-123
5.42897e-126
6.33023e-111
-1.35496e-125
7.37968e-100
-1.16073e-113
6.80222e-90
-1.00351e-102
6.18877e-81
-7.40601e-93
6.76942e-73
-6.00843e-84
1.06887e-65
-7.442e-76
2.89362e-59
-1.57212e-68
1.58698e-53
-6.46247e-62
2.01408e-48
-5.7087e-56
6.82461e-44
-1.22544e-50
6.94405e-40
-7.07065e-46
2.50256e-36
-1.28421e-41
3.2873e-33
-7.38593e-38
1.22006e-30
-8.67044e-35
4.71797e-29
-4.86486e-33
9.78115e-28
-1.4594e-31
1.38104e-26
-2.99812e-30
6.36927e-25
-5.64575e-25
5.89379e-24
-4.86591e-24
2.86963e-23
-1.84702e-23
-1.82192e-23
2.33898e-217
6.56545e-219
2.85125e-216
7.95007e-218
2.03085e-200
5.4319e-202
9.4175e-180
2.30951e-181
2.2407e-161
4.85777e-163
7.83489e-142
1.46109e-143
7.96701e-141
1.23912e-142
1.54541e-138
1.9155e-140
4.23583e-125
3.87191e-127
5.79146e-123
3.45808e-125
1.82212e-111
6.54554e-114
9.70804e-101
1.16889e-103
5.16641e-91
-4.22592e-98
3.23031e-82
-9.92306e-89
3.20716e-74
-2.42085e-80
5.57145e-67
-9.9654e-73
1.91365e-60
-7.4371e-66
1.42329e-54
-1.27361e-59
2.58823e-49
-5.56013e-54
1.26874e-44
-6.74981e-49
1.96662e-40
-2.61676e-44
9.72216e-37
-3.17308e-40
1.018e-33
-6.83696e-37
5.60361e-32
-4.60136e-35
1.63063e-30
-1.67354e-33
3.2593e-29
-5.43227e-32
6.01038e-24
-6.57442e-24
5.08071e-23
-4.96568e-23
1.93776e-22
-1.6138e-22
-1.57885e-22
1.33219e-218
3.83094e-220
2.15874e-217
6.20221e-219
1.74346e-201
4.73699e-203
7.0243e-181
1.7283e-182
1.40778e-162
3.04952e-164
4.05164e-143
7.56455e-145
5.85311e-142
9.21592e-144
1.23823e-139
1.60522e-141
2.32063e-126
2.3993e-128
6.74471e-124
5.43403e-126
1.26654e-112
8.0532e-115
2.08895e-102
1.0428e-104
3.7054e-95
1.39527e-97
2.78974e-86
7.2039e-89
3.92133e-78
5.47617e-81
1.09208e-70
8.90904e-75
6.0115e-64
-6.74159e-68
7.84059e-58
-2.32038e-61
2.67285e-52
-1.45724e-55
2.57137e-47
-2.35827e-50
8.01792e-43
-1.17572e-45
7.94744e-39
-1.98789e-41
1.46387e-35
-5.58914e-38
9.31522e-34
-4.03979e-36
3.18288e-32
-1.57737e-34
9.76489e-31
-1.91674e-32
1.12923e-22
-1.19497e-22
8.19734e-22
-7.56467e-22
2.72046e-21
-2.06211e-21
-1.99409e-21
7.76366e-220
2.31852e-221
1.62114e-218
4.78502e-220
1.51925e-202
4.1282e-204
5.24978e-182
1.26304e-183
8.81157e-164
1.84882e-165
2.0876e-144
3.76562e-146
3.98144e-143
6.08784e-145
1.00188e-140
1.28552e-142
1.38669e-127
1.47734e-129
8.87622e-125
7.82315e-127
1.29143e-113
9.69036e-116
1.52013e-103
1.00253e-105
8.40825e-96
4.9836e-98
3.5817e-87
1.94159e-89
3.66505e-79
1.83911e-81
7.39596e-72
3.42712e-74
4.97162e-65
2.12327e-67
7.39126e-59
2.77723e-61
2.73207e-53
8.26721e-56
2.86931e-48
5.47786e-51
9.991e-44
3.44917e-47
1.23641e-39
-4.38249e-42
2.71394e-36
-1.88536e-38
1.72311e-34
-1.56307e-36
5.95324e-33
-6.45635e-35
6.48494e-31
-3.39981e-32
3.69913e-21
-3.81862e-21
2.16859e-20
-1.87432e-20
6.05646e-20
-4.09408e-20
-3.91358e-20
4.70845e-221
1.51776e-222
1.22801e-219
3.84928e-221
1.34484e-203
3.72824e-205
3.90111e-183
9.39132e-185
5.43025e-165
1.13923e-166
1.05572e-145
1.92042e-147
2.57554e-144
4.0586e-146
8.40148e-142
1.15452e-143
8.95696e-129
1.08245e-130
1.54093e-125
1.66113e-127
1.76189e-114
1.74796e-116
-6.10581e-105
-5.74966e-107
-2.00313e-94
-1.82641e-96
-1.58547e-85
-1.41598e-87
-1.08913e-77
-9.58594e-80
-1.01668e-70
-8.81811e-73
-1.01316e-64
-8.65754e-67
1.2774e-58
1.0627e-60
7.0752e-53
5.63052e-55
7.6191e-48
5.58802e-50
2.42633e-43
1.56442e-45
2.46868e-39
1.29113e-41
4.27552e-36
1.49497e-38
2.28795e-34
3.31054e-37
6.97331e-33
-1.89871e-35
2.88641e-30
-1.10835e-31
2.70418e-19
-2.74237e-19
1.146e-18
-9.02141e-19
2.54654e-18
-1.48146e-18
-1.25436e-18
3.24002e-222
1.19501e-223
1.05127e-220
3.62154e-222
1.40433e-204
4.03226e-206
3.33558e-184
8.26051e-186
3.82258e-166
8.29082e-168
6.10928e-147
1.16701e-148
2.03925e-145
3.47626e-147
1.19945e-142
1.84906e-144
1.00476e-129
1.41378e-131
-1.19782e-119
-1.54952e-121
-1.9048e-108
-2.2881e-110
-4.08985e-98
-4.60584e-100
-7.93492e-89
-8.41725e-91
-1.69183e-80
-1.69012e-82
-3.56961e-73
-3.34695e-75
-1.28164e-66
-1.12121e-68
-9.87814e-61
-8.03538e-63
-1.35297e-55
-1.01575e-57
-4.2656e-51
-2.92447e-53
-2.8755e-47
-1.7605e-49
3.59421e-43
1.90907e-45
1.91798e-38
8.4443e-41
3.79771e-35
1.255e-37
1.90782e-33
3.88624e-36
5.18619e-32
5.12789e-35
5.41402e-29
1.25103e-33
7.73976e-17
-7.76718e-17
1.82963e-16
-1.46729e-16
2.98046e-16
-2.56397e-16
-2.70835e-16
2.2718e-215
2.34035e-216
8.2244e-215
6.23302e-216
1.57142e-198
8.84878e-200
4.17665e-183
1.86332e-184
7.33908e-167
2.64809e-168
7.54995e-148
2.25623e-149
-4.38613e-138
-1.11341e-139
-1.8096e-127
-3.98365e-129
-6.47239e-116
-1.25481e-117
-3.51638e-106
-6.07006e-108
-2.28795e-97
-3.5597e-99
-4.1405e-89
-5.89268e-91
-1.7085e-81
-2.248e-83
-1.6472e-74
-2.009e-76
-3.08439e-68
-3.47349e-70
-1.65476e-62
-1.70568e-64
-3.0538e-57
-2.87033e-59
-1.41079e-52
-1.19938e-54
-2.1613e-48
-1.64164e-50
-1.31167e-44
-8.62462e-47
-3.02754e-41
-1.64891e-43
-1.82671e-38
-7.6849e-41
1.74556e-36
4.92494e-39
2.0795e-36
5.19717e-36
5.28625e-36
5.00793e-35
1.87099e-13
-1.87099e-13
4.77267e-13
-4.45294e-13
8.04989e-13
-7.56729e-13
9.77262e-13
-9.84615e-13
-9.64345e-13
2.5189e-168
3.97039e-169
5.77261e-168
4.68704e-169
1.43514e-167
7.92947e-169
1.51677e-162
6.2593e-164
3.23275e-154
1.03839e-155
-4.56893e-139
-1.19235e-140
-5.47197e-127
-1.20469e-128
-4.48432e-118
-8.58274e-120
-4.12054e-109
-7.00802e-111
-9.88857e-101
-1.51111e-102
-6.34759e-93
-8.81823e-95
-1.52847e-85
-1.97192e-87
-1.40661e-78
-1.71387e-80
-4.62057e-72
-5.32328e-74
-4.05863e-66
-4.36775e-68
-1.30021e-60
-1.27895e-62
-1.80088e-55
-1.60519e-57
-6.53677e-51
-5.19987e-53
-9.75113e-47
-6.77256e-49
-8.0701e-43
-4.5816e-45
-2.37941e-39
-9.92779e-42
-6.2459e-36
-1.54699e-38
-1.38627e-32
-9.60978e-36
1.53141e-10
-1.53141e-10
6.39531e-10
-4.89548e-10
1.43889e-09
-8.0964e-10
2.21254e-09
-7.91737e-10
3.06097e-09
-8.67878e-10
3.62581e-09
-5.84891e-10
1.4231e-09
3.36517e-130
1.13038e-129
8.27353e-131
2.53781e-130
2.05852e-131
6.21501e-131
5.04228e-132
1.55429e-131
1.19503e-132
3.84725e-132
2.7089e-133
9.24144e-133
-2.64195e-124
-1.89339e-126
-5.91609e-116
-4.42916e-118
-3.77347e-107
-2.95966e-109
-4.40017e-99
-3.50277e-101
-1.57001e-91
-1.24868e-93
-2.34089e-84
-1.9177e-86
-1.47087e-77
-1.26741e-79
-3.66239e-71
-3.2521e-73
-2.63339e-65
-2.29755e-67
-7.51945e-60
-6.0471e-62
-9.94648e-55
-7.19499e-57
-3.41563e-50
-2.13884e-52
-5.06163e-46
-2.59472e-48
-4.45793e-42
-1.51683e-44
-1.35983e-38
-1.56747e-41
1.29291e-07
-1.29291e-07
4.90483e-07
-3.61192e-07
1.0435e-06
-5.53173e-07
1.79391e-06
-7.50891e-07
2.73267e-06
-9.39559e-07
3.70434e-06
-9.72445e-07
4.70949e-06
-1.006e-06
5.76109e-06
-1.05217e-06
-9.62889e-07
6.75238e-05
-2.55486e-05
8.20948e-05
-1.4571e-05
9.25901e-05
-1.04953e-05
0.000100659
-8.06898e-06
0.000106959
-6.29963e-06
0.000111989
-5.03002e-06
0.000116082
-4.09298e-06
0.000119436
-3.35388e-06
0.000122187
-2.75183e-06
0.000124475
-2.28742e-06
0.000126406
-1.92723e-06
0.000128005
-1.59878e-06
0.000129291
-1.28636e-06
0.000130316
-1.02424e-06
0.00013116
-8.44259e-07
0.000131921
-7.60881e-07
0.000132634
-7.12669e-07
0.000133334
-7.00481e-07
0.000134055
-7.20677e-07
0.00013489
-8.35431e-07
0.000135911
-1.03512e-06
0.000137071
-1.28939e-06
0.000138217
-1.50722e-06
0.000139265
-1.60084e-06
0.000140265
-1.7505e-06
0.00014122
-1.89529e-06
0.000142026
-1.77838e-06
0.000142725
-1.70486e-06
0.00014336
-1.68696e-06
-1.51577e-06
0.000166566
-5.42633e-05
0.000192535
-4.05394e-05
0.000212581
-3.0542e-05
0.000228977
-2.44641e-05
0.000242588
-1.9911e-05
0.000254069
-1.65113e-05
0.000263944
-1.3968e-05
0.000272572
-1.19815e-05
0.000280198
-1.03779e-05
0.000287013
-9.10242e-06
0.000293177
-8.09099e-06
0.000298806
-7.22753e-06
0.000303974
-6.45532e-06
0.000308735
-5.78501e-06
0.000313128
-5.23728e-06
0.000317185
-4.81803e-06
0.00032093
-4.45756e-06
0.000324376
-4.14582e-06
0.000327527
-3.87188e-06
0.000330382
-3.69094e-06
0.000332938
-3.59038e-06
0.000335171
-3.5232e-06
0.000337002
-3.33776e-06
0.000338327
-2.92567e-06
0.000339257
-2.68114e-06
0.000339833
-2.47077e-06
0.000340075
-2.02068e-06
0.000340068
-1.6978e-06
0.000339919
-1.53824e-06
-1.35186e-06
0.000527869
-6.03802e-05
0.000543203
-5.58738e-05
0.000558776
-4.61152e-05
0.000573705
-3.93929e-05
0.000587937
-3.41429e-05
0.000601144
-2.97182e-05
0.000613337
-2.61616e-05
0.000624633
-2.32772e-05
0.000635125
-2.08706e-05
0.000644917
-1.88941e-05
0.000654127
-1.73004e-05
0.000662821
-1.59224e-05
0.00067103
-1.4664e-05
0.000678776
-1.35307e-05
0.000686084
-1.25455e-05
0.000692972
-1.17062e-05
0.000699449
-1.09346e-05
0.000705504
-1.02002e-05
0.000711116
-9.48468e-06
0.000716253
-8.82706e-06
0.000720875
-8.21279e-06
0.000724913
-7.56132e-06
0.000728175
-6.59952e-06
0.000730461
-5.21201e-06
0.000731969
-4.18864e-06
0.000732748
-3.25055e-06
0.000732842
-2.11416e-06
0.000732353
-1.20863e-06
0.000731746
-9.31961e-07
-6.78445e-07
0.00163871
-4.90995e-05
0.00163034
-4.75003e-05
0.00162595
-4.17208e-05
0.00162249
-3.59385e-05
0.00161938
-3.10279e-05
0.00161625
-2.65924e-05
0.00161278
-2.26878e-05
0.00160889
-1.93863e-05
0.00160467
-1.66531e-05
0.00160035
-1.4577e-05
0.00159627
-1.32172e-05
0.00159266
-1.23116e-05
0.00158967
-1.16744e-05
0.00158741
-1.12709e-05
0.00158595
-1.10917e-05
0.00158532
-1.10727e-05
0.00158545
-1.10675e-05
0.00158621
-1.09606e-05
0.00158742
-1.06868e-05
0.0015888
-1.02092e-05
0.00159009
-9.49973e-06
0.00159094
-8.41497e-06
0.00159092
-6.58301e-06
0.00158986
-4.15017e-06
0.00158774
-2.06337e-06
0.00158443
5.09221e-08
0.00157991
2.41049e-06
0.00157413
4.57313e-06
0.00156865
4.54717e-06
3.28552e-06
0.00153869
-4.56288e-05
0.00153611
-4.49169e-05
0.0015355
-4.11091e-05
0.00153568
-3.61233e-05
0.00153587
-3.12148e-05
0.00153579
-2.65176e-05
0.0015352
-2.20961e-05
0.00153388
-1.80647e-05
0.00153172
-1.44878e-05
0.00152872
-1.15802e-05
0.00152501
-9.50769e-06
0.00152066
-7.96049e-06
0.00151576
-6.77527e-06
0.0015104
-5.90701e-06
0.00150464
-5.3401e-06
0.00149855
-4.9835e-06
0.00149215
-4.65887e-06
0.00148534
-4.15565e-06
0.00147802
-3.36776e-06
0.00147
-2.18916e-06
0.00146103
-5.30377e-07
0.00145081
1.80394e-06
0.00143934
4.89327e-06
0.00142742
7.77162e-06
0.00141475
1.06058e-05
0.00140124
1.35547e-05
0.00138697
1.66821e-05
0.00137194
1.96021e-05
0.00135753
1.89624e-05
1.15612e-05
0.00154889
-4.38923e-05
0.00154766
-4.36906e-05
0.00154762
-4.10657e-05
0.00154838
-3.68907e-05
0.00154934
-3.21725e-05
0.00155021
-2.7388e-05
0.00155078
-2.26696e-05
0.00155081
-1.80904e-05
0.00155014
-1.38195e-05
0.00154884
-1.02819e-05
0.00154696
-7.61892e-06
0.00154431
-5.31481e-06
0.00154076
-3.2217e-06
0.00153617
-1.3195e-06
0.00153039
4.42818e-07
0.00152322
2.18327e-06
0.00151444
4.12288e-06
0.0015038
6.47695e-06
0.00149104
9.39962e-06
0.0014758
1.30448e-05
0.00145784
1.74356e-05
0.00143696
2.2679e-05
0.00141381
2.80413e-05
0.00139054
3.10423e-05
0.00136695
3.42039e-05
0.00134321
3.72912e-05
0.00131959
4.03011e-05
0.0012962
4.29943e-05
0.00127401
4.11468e-05
2.33535e-05
0.00155032
-4.23827e-05
0.00154844
-4.18093e-05
0.00154713
-3.97519e-05
0.00154626
-3.603e-05
0.00154554
-3.14523e-05
0.00154477
-2.66128e-05
0.00154376
-2.16583e-05
0.00154217
-1.65037e-05
0.00153963
-1.12811e-05
0.00153602
-6.67418e-06
0.00153139
-2.98847e-06
0.00152537
7.04643e-07
0.00151778
4.37639e-06
0.00150832
8.13476e-06
0.00149681
1.19552e-05
0.00148303
1.5961e-05
0.00146677
2.03882e-05
0.00144775
2.54916e-05
0.00142581
3.1338e-05
0.00140085
3.80135e-05
0.00137277
4.55107e-05
0.00134175
5.37007e-05
0.00130904
6.07459e-05
0.00127778
6.23047e-05
0.00124759
6.44008e-05
0.00121863
6.62512e-05
0.00119105
6.78722e-05
0.00116487
6.91805e-05
0.00113981
6.62077e-05
3.70837e-05
0.00153416
-3.73133e-05
0.00152878
-3.64233e-05
0.00152281
-3.37857e-05
0.00151621
-2.94254e-05
0.00150919
-2.44386e-05
0.00150163
-1.90445e-05
0.00149349
-1.35248e-05
0.00148441
-7.41975e-06
0.00147385
-7.19441e-07
0.00146144
5.73162e-06
0.00144686
1.15893e-05
0.00143029
1.72761e-05
0.00141182
2.28442e-05
0.00139127
2.86901e-05
0.0013688
3.44231e-05
0.00134434
4.04232e-05
0.00131789
4.68407e-05
0.0012895
5.38763e-05
0.00125923
6.16113e-05
0.00122714
7.01014e-05
0.00119335
7.9297e-05
0.00115808
8.89752e-05
0.00112258
9.62443e-05
0.00108999
9.48909e-05
0.00105964
9.47578e-05
0.00103144
9.44513e-05
0.0010053
9.40073e-05
0.000980944
9.35389e-05
0.000956422
9.07293e-05
5.00868e-05
0.00143434
-2.20143e-05
0.00141777
-1.98581e-05
0.00140056
-1.65744e-05
0.001382
-1.08616e-05
0.00136309
-5.53418e-06
0.00134286
1.18588e-06
0.00132066
8.67856e-06
0.00129683
1.64102e-05
0.00127213
2.39767e-05
0.00124686
3.09999e-05
0.00122132
3.71357e-05
0.00119537
4.32287e-05
0.00116886
4.93464e-05
0.00114186
5.56924e-05
0.00111403
6.22516e-05
0.00108529
6.91626e-05
0.00105559
7.65466e-05
0.00102493
8.45385e-05
0.000993385
9.31519e-05
0.000961096
0.00010239
0.000928199
0.000112194
0.000894749
0.000122425
0.000861754
0.00012924
0.00083218
0.000124465
0.00080536
0.000121578
0.000781034
0.000118777
0.000758778
0.000116263
0.000739195
0.000113122
0.000715673
0.000114252
6.60387e-05
0.00113566
0.00110497
0.00107379
0.00104379
0.00101466
0.000987552
0.000962942
0.000940493
0.000919494
0.000899016
0.000878082
0.000856311
0.000833394
0.000809198
0.000783645
0.000756802
0.000728851
0.000700064
0.000670726
0.000641112
0.00061147
0.000581749
0.000552528
0.000526829
0.000504299
0.000484369
0.000466401
0.000451491
0.000429737
)
;

boundaryField
{
    walls
    {
        type            calculated;
        value           nonuniform List<scalar> 
100
(
0
0
0
0
9.42883e-258
6.30353e-236
1.84956e-220
3.47253e-180
7.62872e-159
-5.45396e-131
0
0
0
0
5.52081e-300
3.4482e-284
7.19221e-273
1.6837e-237
3.50201e-226
5.11579e-217
7.20252e-217
4.54179e-216
4.44647e-200
4.78437e-179
3.29262e-160
3.43668e-139
2.88923e-124
1.54216e-111
2.1746e-100
1.63413e-90
1.10066e-81
8.93108e-74
1.09773e-66
2.47716e-60
1.20256e-54
1.43714e-49
4.78845e-45
4.93669e-41
1.75485e-37
2.37479e-34
1.40453e-31
3.69621e-29
3.83135e-27
8.25052e-26
1.02324e-24
8.81675e-24
5.771e-23
2.98053e-22
1.36562e-21
4.364e-21
9.28204e-06
1.08262e-05
1.46063e-05
1.91418e-05
2.35902e-05
2.82985e-05
3.32885e-05
3.88596e-05
4.49759e-05
5.14782e-05
5.80695e-05
6.49989e-05
7.22636e-05
7.98891e-05
8.78042e-05
9.60057e-05
0.000104497
0.000113325
0.00012249
0.000132004
0.000141836
0.000152146
0.000158461
0.000150164
0.000144108
0.000138707
0.000134231
0.000128032
0.000136007
8.03442e-05
0.000262546
0.000160404
0.000114844
9.08671e-05
7.73986e-05
6.8932e-05
6.22138e-05
5.50762e-05
4.26957e-05
-2.49046e-06
2.22545e-05
2.18579e-05
2.21561e-05
2.42984e-05
2.68575e-05
2.87223e-05
3.01924e-05
3.12943e-05
3.19253e-05
3.0602e-05
)
;
    }
    topInlet
    {
        type            calculated;
        value           nonuniform List<scalar> 10(-0.000174246 -0.000370233 -0.000799057 -0.0017264 -0.00154049 -0.00154384 -0.00154678 -0.00154938 -0.00155119 -0.00155304);
    }
    bottomInlet
    {
        type            calculated;
        value           uniform 0;
    }
    outlet
    {
        type            calculated;
        value           nonuniform List<scalar> 
20
(
2.27105e-20
1.05458e-22
3.34041e-22
4.55667e-21
9.7706e-20
3.68859e-18
3.12023e-16
6.82071e-13
2.17708e-09
6.72543e-06
0.000143913
0.000339756
0.000731073
0.00156469
0.00134925
0.00126222
0.00112608
0.000943419
0.000699721
0.000415431
)
;
    }
    frontBack
    {
        type            empty;
        value           nonuniform 0();
    }
}


// ************************************************************************* //
