/*--------------------------------*- C++ -*----------------------------------*\
| =========                 |                                                 |
| \\      /  F ield         | OpenFOAM: The Open Source CFD Toolbox           |
|  \\    /   O peration     | Version:  4.x                                   |
|   \\  /    A nd           | Web:      www.OpenFOAM.org                      |
|    \\/     M anipulation  |                                                 |
\*---------------------------------------------------------------------------*/
FoamFile
{
    version     2.0;
    format      ascii;
    class       volScalarField;
    location    "0.15";
    object      k;
}
// * * * * * * * * * * * * * * * * * * * * * * * * * * * * * * * * * * * * * //

dimensions      [0 2 -2 0 0 0 0];

internalField   nonuniform List<scalar> 
800
(
5.23228
10.9774
16.2017
20.3605
23.3785
25.3989
26.6359
27.2519
27.4473
27.4
0.647876
1.13058
1.73776
2.37809
2.96611
3.47782
3.89524
4.26613
4.58595
4.85307
0.387182
0.41535
0.456966
0.508174
0.562682
0.616454
0.6669
0.714211
0.756595
0.794499
0.373385
0.372106
0.371788
0.37218
0.372802
0.373209
0.373124
0.372423
0.370927
0.368666
0.372822
0.369316
0.365567
0.361554
0.357259
0.352634
0.347653
0.342307
0.336597
0.330598
0.371391
0.364378
0.355468
0.345141
0.333889
0.322122
0.310157
0.298221
0.28649
0.27536
0.351263
0.312017
0.269822
0.231269
0.198631
0.171981
0.150563
0.133505
0.120122
0.109994
0.814157
1.00669
1.03812
1.01785
0.984754
0.951021
0.919966
0.891728
0.863483
0.811067
16.7145
15.8877
12.9722
10.9268
9.62482
8.74443
8.07039
7.48677
6.92541
6.14161
127.374
87.4089
62.002
49.0046
41.6316
36.8176
33.1178
29.8573
26.6405
22.7758
128.509
87.7016
62.0854
49.0414
41.6525
36.8144
33.0777
29.7734
26.5219
22.6899
17.0374
16.1103
13.1182
11.0385
9.71938
8.82623
8.13937
7.54209
6.96776
6.17784
0.835633
1.03462
1.06571
1.04379
1.00896
0.973651
0.941177
0.911602
0.88194
0.827359
0.350473
0.31019
0.267282
0.228436
0.195823
0.169392
0.14829
0.131591
0.118581
0.108798
0.371364
0.364173
0.355016
0.344409
0.33287
0.320826
0.308603
0.296435
0.284502
0.273212
0.372889
0.369378
0.365603
0.361543
0.357182
0.352475
0.347398
0.341942
0.336109
0.329985
0.373474
0.372274
0.372039
0.372501
0.373179
0.37362
0.373549
0.372825
0.371261
0.369005
0.387854
0.417189
0.460181
0.512764
0.568677
0.623664
0.675384
0.723598
0.766855
0.806358
0.659279
1.15944
1.78496
2.44019
3.04143
3.56118
3.98948
4.37205
4.69965
4.97096
5.3993
11.3206
16.6778
20.9175
23.9735
26.0029
27.2242
27.813
27.9835
27.9174
27.3646
27.1386
26.7309
26.179
25.5244
24.8041
24.0015
23.1902
22.4204
21.714
21.0669
20.4564
19.8592
19.2575
18.6405
18.0035
17.346
16.671
15.984
15.2922
14.6024
13.9217
13.2491
12.6328
12.0878
11.6083
11.1851
10.786
10.5382
9.90873
5.28181
5.6155
5.85233
5.98589
6.03862
6.0261
6.01615
6.00417
5.98628
5.95323
5.90289
5.84034
5.76893
5.69044
5.60606
5.51679
5.42355
5.32665
5.2266
5.12348
5.01758
4.90926
4.80299
4.70652
4.61565
4.53049
4.45101
4.37937
4.30487
4.30946
0.917159
1.03535
1.14152
1.22945
1.29798
1.34868
1.38669
1.41642
1.44005
1.46858
1.50747
1.55435
1.60657
1.66218
1.72094
1.78288
1.84849
1.9181
1.99185
2.06933
2.14978
2.23215
2.31619
2.39541
2.46746
2.5319
2.5893
2.64244
2.68618
2.81087
0.381019
0.394971
0.40905
0.421627
0.431654
0.438796
0.443254
0.445525
0.4462
0.446517
0.448404
0.452861
0.461601
0.47598
0.496256
0.522897
0.556372
0.597729
0.648337
0.709705
0.783458
0.871159
0.972973
1.07992
1.18986
1.30058
1.4103
1.51855
1.62447
1.7684
0.327826
0.324953
0.321649
0.31757
0.312444
0.306106
0.298503
0.289694
0.279838
0.269227
0.258315
0.247576
0.237542
0.228789
0.22187
0.217326
0.216028
0.218658
0.226078
0.239443
0.260332
0.290746
0.332775
0.384149
0.445222
0.515977
0.596096
0.68507
0.782877
0.90203
0.269723
0.263877
0.257503
0.25048
0.242838
0.23465
0.225994
0.216961
0.207652
0.198176
0.188667
0.179249
0.170025
0.16109
0.152537
0.144471
0.13705
0.130485
0.125085
0.121306
0.119831
0.121812
0.128588
0.140412
0.157872
0.181624
0.21253
0.251531
0.299913
0.361521
0.106006
0.101503
0.0970571
0.0930712
0.0897768
0.0872172
0.085362
0.0841521
0.0834996
0.0832957
0.0834202
0.0837217
0.0840206
0.0841307
0.0838801
0.0831279
0.0817859
0.0798299
0.0773174
0.0744004
0.0713495
0.0685924
0.066754
0.0664593
0.0680737
0.0720377
0.0787749
0.0888391
0.10298
0.122481
0.55285
0.363913
0.24632
0.173785
0.128361
0.0993162
0.0803935
0.0679332
0.059739
0.0544479
0.0511868
0.049367
0.048563
0.0484457
0.048748
0.0492457
0.0497531
0.0501167
0.0502223
0.0500028
0.0494587
0.0486844
0.0479111
0.0474873
0.0476888
0.0488092
0.0511822
0.0551676
0.061223
0.0700016
2.04616
0.817866
0.396646
0.224764
0.143715
0.100784
0.075998
0.0608459
0.0513026
0.0452868
0.041635
0.0396441
0.038848
0.0389063
0.0395469
0.0405365
0.0416693
0.0427619
0.0436592
0.0442456
0.0444647
0.0443456
0.0440415
0.0438339
0.0439939
0.0448036
0.0465705
0.0496339
0.0544079
0.0614475
3.27749
0.982115
0.427054
0.23168
0.144911
0.10018
0.0747417
0.0593359
0.049688
0.0436274
0.039959
0.0379696
0.0371926
0.0372902
0.0379928
0.0390681
0.040308
0.0415243
0.0425558
0.0432796
0.0436307
0.0436282
0.0434136
0.0432576
0.043432
0.0442167
0.0459164
0.0488707
0.0534912
0.0603223
3.26808
0.980532
0.426549
0.231443
0.144768
0.100072
0.0746483
0.0592471
0.0495993
0.0435371
0.0398665
0.0378744
0.0370942
0.037189
0.0378903
0.0389667
0.0402098
0.0414312
0.0424695
0.0432015
0.0435624
0.0435709
0.0433684
0.0432251
0.0434134
0.0442129
0.0459289
0.0489036
0.0535526
0.0604234
2.04659
0.816075
0.395457
0.224038
0.143208
0.100366
0.0756133
0.0604685
0.0509202
0.0448945
0.0412317
0.0392283
0.0384189
0.0384662
0.0391021
0.040097
0.0412443
0.0423596
0.0432863
0.0439088
0.04417
0.044098
0.0438453
0.0436908
0.0439086
0.0447791
0.0466119
0.0497584
0.0546478
0.0618487
0.56101
0.367457
0.24765
0.17405
0.128098
0.0987738
0.0796883
0.0671185
0.0588384
0.053476
0.0501555
0.0482835
0.047433
0.0472799
0.0475654
0.0480726
0.0486143
0.0490345
0.0492153
0.0490892
0.0486552
0.0480053
0.0473679
0.0470841
0.0474356
0.0487126
0.051254
0.0554523
0.0618059
0.0710034
0.104861
0.100335
0.09584
0.0917985
0.0884478
0.0858318
0.0839182
0.0826441
0.0819222
0.0816518
0.0817145
0.081953
0.0821868
0.0822363
0.0819397
0.0811661
0.0798308
0.0779132
0.0754734
0.07267
0.0697785
0.0672268
0.0656378
0.0656198
0.0675374
0.0717837
0.0789211
0.0895414
0.104456
0.125054
0.267523
0.26163
0.255206
0.24813
0.240439
0.232209
0.223524
0.214476
0.205168
0.195721
0.186273
0.176941
0.167821
0.158999
0.150571
0.142652
0.135383
0.128962
0.123694
0.120044
0.118707
0.120808
0.127716
0.139724
0.157504
0.181892
0.213719
0.254052
0.304318
0.3686
0.327158
0.324227
0.320849
0.316677
0.311439
0.304977
0.29724
0.288285
0.278279
0.267558
0.256578
0.245814
0.235838
0.227196
0.220471
0.216346
0.215352
0.21814
0.22556
0.238763
0.259343
0.289405
0.331147
0.38249
0.443992
0.515849
0.597738
0.689209
0.790256
0.913825
0.381663
0.395884
0.410143
0.422779
0.432793
0.439869
0.444207
0.446211
0.446522
0.446846
0.448832
0.453713
0.463642
0.47874
0.499223
0.525416
0.558115
0.598398
0.647642
0.707468
0.779681
0.866114
0.967267
1.07446
1.18571
1.29885
1.41168
1.52354
1.63339
1.78263
0.931226
1.05094
1.15776
1.24549
1.31372
1.36412
1.40203
1.43075
1.45332
1.48546
1.52645
1.57372
1.62423
1.67745
1.73338
1.7924
1.85509
1.92189
1.99305
2.06841
2.14742
2.22918
2.3135
2.39376
2.46753
2.53437
2.59422
2.64974
2.69581
2.82415
5.39791
5.72883
5.96059
6.0855
6.13317
6.12296
6.11606
6.10444
6.08521
6.04406
5.98676
5.91807
5.84141
5.75814
5.67001
5.57775
5.48169
5.38192
5.27862
5.17193
5.06206
4.94931
4.83817
4.73691
4.6416
4.55264
4.46963
4.39478
4.31817
4.31966
27.8792
27.645
27.2248
26.6589
25.9892
25.2434
24.419
23.5941
22.8178
22.1083
21.4578
20.8412
20.2361
19.625
18.9969
18.3454
17.6693
16.972
16.2597
15.5399
14.8192
14.1051
13.3976
12.7487
12.1747
11.6682
11.2225
10.805
10.5442
9.89227
)
;

boundaryField
{
    walls
    {
        type            kqRWallFunction;
        value           nonuniform List<scalar> 
100
(
127.374
87.4089
62.002
49.0046
41.6316
36.8176
33.1178
29.8573
26.6405
22.7758
5.23228
10.9774
16.2017
20.3605
23.3785
25.3989
26.6359
27.2519
27.4473
27.4
27.3646
27.1386
26.7309
26.179
25.5244
24.8041
24.0015
23.1902
22.4204
21.714
21.0669
20.4564
19.8592
19.2575
18.6405
18.0035
17.346
16.671
15.984
15.2922
14.6024
13.9217
13.2491
12.6328
12.0878
11.6083
11.1851
10.786
10.5382
9.90873
27.8792
27.645
27.2248
26.6589
25.9892
25.2434
24.419
23.5941
22.8178
22.1083
21.4578
20.8412
20.2361
19.625
18.9969
18.3454
17.6693
16.972
16.2597
15.5399
14.8192
14.1051
13.3976
12.7487
12.1747
11.6682
11.2225
10.805
10.5442
9.89227
128.509
87.7016
62.0854
49.0414
41.6525
36.8144
33.0777
29.7734
26.5219
22.6899
5.3993
11.3206
16.6778
20.9175
23.9735
26.0029
27.2242
27.813
27.9835
27.9174
)
;
    }
    topInlet
    {
        type            fixedValue;
        value           uniform 0.375;
    }
    bottomInlet
    {
        type            fixedValue;
        value           uniform 0.375;
    }
    outlet
    {
        type            zeroGradient;
    }
    frontBack
    {
        type            empty;
    }
}


// ************************************************************************* //
