/*--------------------------------*- C++ -*----------------------------------*\
| =========                 |                                                 |
| \\      /  F ield         | OpenFOAM: The Open Source CFD Toolbox           |
|  \\    /   O peration     | Version:  4.x                                   |
|   \\  /    A nd           | Web:      www.OpenFOAM.org                      |
|    \\/     M anipulation  |                                                 |
\*---------------------------------------------------------------------------*/
FoamFile
{
    version     2.0;
    format      ascii;
    class       surfaceScalarField;
    location    "0.3";
    object      alphaPhi;
}
// * * * * * * * * * * * * * * * * * * * * * * * * * * * * * * * * * * * * * //

dimensions      [0 3 -1 0 0 0 0];

internalField   nonuniform List<scalar> 
1530
(
0
0
0
0
0
0
0
0
0
0
0
0
0
0
0
0
0
0
0
0
0
0
0
0
0
0
0
0
0
0
0
0
0
0
0
0
0
0
0
0
0
0
0
0
0
0
0
0
0
0
0
0
0
0
0
0
0
0
0
0
0
0
0
0
0
0
0
0
0
0
0
0
0
0
0
0
0
0
0
0
0
0
0
0
0
0
0
0
0
0
0
0
0
0
0
0
0
0
0
0
0
0
0
0
0
0
0
0
0
0
0
0
0
0
0
0
0
0
0
0
0
0
0
0
0
0
0
0
0
0
0
0
0
0
0
0
0
0
0
0
0
0
0
0
0
0
0
0
0
0
0
0
0
0
0
0
0
0
0
0
0
0
0
0
0
0
0
0
0
0
0
0
0
0
3.8046e-298
1.64995e-298
2.08151e-273
7.29803e-274
6.80778e-271
3.95623e-270
0
0
0
0
0
0
0
1.16612e-279
7.75027e-241
3.04387e-186
7.04476e-05
-0.000158748
4.49239e-05
-0.000134881
3.40074e-05
-0.000103928
2.82084e-05
-8.50681e-05
2.46694e-05
-7.38596e-05
2.21414e-05
-6.6404e-05
2.00317e-05
-6.01041e-05
1.80295e-05
-5.3074e-05
1.60998e-05
-4.0766e-05
-2.3385e-05
4.19753e-05
0.000279033
-6.75482e-05
0.000223887
-7.97348e-05
0.000189918
-6.9959e-05
0.00016771
-6.28598e-05
0.000152412
-5.85611e-05
0.000140627
-5.46193e-05
0.000130474
-4.99517e-05
0.000121285
-4.38846e-05
0.000116087
-3.55678e-05
-4.51497e-05
0.000137852
0.000778393
-4.68838e-05
0.00074094
-4.22821e-05
0.000706506
-3.55252e-05
0.00067149
-2.78432e-05
0.000637392
-2.44637e-05
0.000605346
-2.25731e-05
0.000575652
-2.02575e-05
0.000549463
-1.76958e-05
0.000531816
-1.79207e-05
-3.50855e-05
0.000521752
0.00173007
-5.05502e-05
0.00172577
-3.79838e-05
0.00172187
-3.16277e-05
0.00171837
-2.43426e-05
0.00171258
-1.86743e-05
0.00170445
-1.44428e-05
0.00169488
-1.06808e-05
0.00168476
-7.57511e-06
0.00167363
-6.79811e-06
-1.1448e-05
0.00165
0.00154247
-5.25271e-05
0.00154413
-3.9639e-05
0.00154475
-3.22541e-05
0.00154622
-2.5807e-05
0.00154755
-2.0011e-05
0.00154831
-1.5202e-05
0.00154877
-1.11367e-05
0.00154904
-7.8459e-06
0.00154808
-5.8406e-06
-5.5287e-06
0.00154216
0.001545
-5.3693e-05
0.00154658
-4.12139e-05
0.00154749
-3.31661e-05
0.00154877
-2.70889e-05
0.00155023
-2.1467e-05
0.00155145
-1.64274e-05
0.00155242
-1.20998e-05
0.00155302
-8.45044e-06
0.00155273
-5.5544e-06
-3.41631e-06
0.00155062
0.00154775
-5.46707e-05
0.00154885
-4.2307e-05
0.00154953
-3.3845e-05
0.00155043
-2.79925e-05
0.00155155
-2.25903e-05
0.0015527
-1.75725e-05
0.00155378
-1.3183e-05
0.00155456
-9.22799e-06
0.00155408
-5.07732e-06
-1.16507e-06
0.00155183
0.00155061
-5.59035e-05
0.00155057
-4.22663e-05
0.00154995
-3.32239e-05
0.00154903
-2.70751e-05
0.00154763
-2.11842e-05
0.00154596
-1.59108e-05
0.00154422
-1.14355e-05
0.00154245
-7.46249e-06
0.00154075
-3.37309e-06
3.47236e-07
0.00153923
0.00154854
-5.32483e-05
0.00154115
-3.48761e-05
0.0015335
-2.55715e-05
0.00152472
-1.82975e-05
0.00151424
-1.0706e-05
0.00150317
-4.84394e-06
0.00149106
6.81856e-07
0.0014779
5.68986e-06
0.00146428
1.02507e-05
1.49908e-05
0.00144964
0.00147754
0.00142081
0.00137308
0.00133048
0.00129292
0.00125935
0.00122984
0.00120424
0.00118257
0.00116695
0
0
0
0
0
0
0
0
1.79929e-300
1.19343e-302
2.20506e-263
8.03094e-267
8.22206e-235
-1.02543e-267
5.05042e-210
-4.96699e-266
3.66408e-188
-7.72417e-242
1.04243e-168
-8.46979e-217
3.07171e-151
-1.87454e-194
1.58061e-135
-2.84133e-174
2.12341e-121
-4.36828e-156
1.04992e-108
-9.78927e-140
2.54574e-97
-4.56674e-125
3.86468e-87
-6.26166e-112
4.66385e-78
-3.49997e-100
5.41382e-70
-1.03788e-89
7.41785e-63
-2.1579e-80
1.44576e-56
-3.9733e-72
5.07251e-51
-8.63147e-65
3.59754e-46
-2.57245e-58
3.37127e-42
-4.23846e-53
5.63592e-40
-1.24117e-50
4.12922e-38
-1.58863e-48
1.80569e-36
-1.22668e-46
5.81383e-26
-7.45688e-26
5.98415e-25
-7.07058e-25
2.87036e-24
-3.16456e-24
-3.32021e-24
0
0
0
0
0
0
0
0
4.72762e-302
8.90065e-304
3.0997e-266
4.70878e-268
1.95112e-265
2.21058e-267
4.468e-264
3.2269e-266
4.49191e-240
1.01783e-242
3.6573e-215
-1.11165e-242
6.53327e-193
-2.59683e-220
8.29348e-173
-1.91903e-198
1.08821e-154
-1.21672e-178
2.10471e-138
-9.73355e-161
8.53197e-124
-1.92375e-144
1.0204e-110
-1.15674e-129
4.9932e-99
-2.71063e-116
1.29731e-88
-2.98813e-104
2.36576e-79
-1.96155e-93
3.82181e-71
-9.38018e-84
7.29369e-64
-4.29441e-75
1.91431e-57
-2.12115e-67
2.8701e-52
-3.02447e-61
8.40712e-50
-1.22337e-58
1.06355e-47
-2.2364e-56
8.12734e-46
-2.53069e-54
4.89959e-25
-5.64528e-25
4.64824e-24
-4.86534e-24
1.99483e-23
-1.84646e-23
-1.81851e-23
0
0
0
0
0
0
0
0
2.70576e-303
5.86601e-305
1.37738e-267
2.5686e-269
1.4006e-266
2.17837e-268
2.89472e-265
3.58796e-267
7.94143e-242
7.25915e-244
4.75147e-240
2.8371e-242
4.07652e-218
1.4644e-220
1.85649e-196
2.23529e-199
8.48778e-177
-5.84769e-189
5.23305e-159
-1.59901e-170
8.29045e-143
-7.9873e-154
4.09941e-128
-1.33853e-138
8.02666e-115
-7.62976e-125
7.44996e-103
-2.41956e-112
4.14295e-92
-5.33478e-101
1.68316e-82
-9.64563e-91
6.57639e-74
-1.81043e-81
2.79208e-66
-3.78719e-73
3.55105e-60
-1.69439e-66
1.40914e-57
-6.91249e-64
2.4988e-55
-1.36876e-61
2.75114e-53
-2.13788e-59
6.00988e-24
-6.57441e-24
5.08012e-23
-4.96566e-23
1.93717e-22
-1.6138e-22
-1.57884e-22
0
0
0
0
0
0
0
0
1.69996e-304
3.68245e-306
7.12279e-269
1.32985e-270
1.02898e-267
1.62016e-269
2.40289e-266
3.11506e-268
4.35077e-243
4.49826e-245
5.09798e-241
4.10731e-243
2.8313e-219
1.80026e-221
3.98298e-198
1.98831e-200
5.12741e-186
1.93072e-188
4.49539e-168
1.16084e-170
1.2938e-151
1.8068e-154
1.46687e-136
1.19664e-140
6.16722e-123
-2.53094e-128
1.48953e-110
-1.4849e-115
2.56452e-99
-4.44765e-104
3.67455e-89
-1.06359e-93
5.54727e-80
-2.69016e-84
9.48555e-72
-9.48631e-76
3.62788e-65
-5.47338e-69
1.3994e-62
-1.75507e-66
2.60321e-60
-2.867e-64
3.84298e-58
-1.25024e-61
1.12922e-22
-1.19497e-22
8.19731e-22
-7.56466e-22
2.72045e-21
-2.0621e-21
-1.99409e-21
0
0
0
0
0
0
0
0
1.06404e-305
2.23255e-307
3.67e-270
6.61997e-272
6.99939e-269
1.07024e-270
1.93917e-267
2.48817e-269
2.5998e-244
2.76974e-246
5.99313e-242
5.28211e-244
2.87493e-220
2.15724e-222
2.86196e-199
1.88749e-201
1.19627e-186
7.09033e-189
6.55717e-169
3.55456e-171
9.32533e-153
4.67941e-155
9.19676e-139
4.26158e-141
1.86645e-125
7.9712e-128
4.72995e-113
1.77726e-115
8.33856e-102
2.52324e-104
1.29408e-91
2.47054e-94
2.28604e-82
7.89203e-86
5.9002e-74
-1.57418e-76
2.65773e-67
-9.17964e-70
7.48597e-65
-2.61097e-67
1.08205e-62
-4.06765e-65
4.22996e-60
-3.59374e-62
3.69913e-21
-3.81862e-21
2.16858e-20
-1.87432e-20
6.05644e-20
-4.09407e-20
-3.91357e-20
0
0
0
0
0
0
0
0
6.55731e-307
1.37568e-308
1.85595e-271
3.3761e-273
4.52781e-270
7.13502e-272
1.55497e-268
2.13682e-270
1.67927e-245
2.02941e-247
8.63874e-243
9.31262e-245
4.12803e-221
4.09537e-223
3.22004e-200
3.03222e-202
-1.20695e-185
-1.10047e-187
-9.86901e-168
-8.814e-170
-1.04858e-151
-9.22911e-154
-2.76317e-137
-2.39662e-139
-1.38018e-124
-1.17938e-126
3.10963e-112
2.58696e-114
5.7865e-101
4.60496e-103
6.56262e-91
4.81317e-93
7.34729e-82
4.73729e-84
8.86742e-74
4.63771e-76
2.08171e-67
7.27886e-70
3.82182e-65
5.52996e-68
4.39335e-63
-2.64756e-65
3.05105e-60
-4.07805e-62
2.70419e-19
-2.74237e-19
1.146e-18
-9.02142e-19
2.54654e-18
-1.48146e-18
-1.25436e-18
0
0
0
0
0
0
0
0
4.61596e-308
1.00116e-309
1.07401e-272
2.0516e-274
3.58501e-271
6.11128e-273
1.86274e-269
2.87157e-271
1.88973e-246
2.659e-248
-3.20446e-236
-4.14538e-238
-8.74879e-214
-1.05093e-215
-3.0862e-193
-3.47556e-195
-1.12296e-174
-1.19122e-176
-6.09095e-158
-6.08478e-160
-5.22045e-143
-4.89482e-145
-1.42358e-129
-1.24538e-131
-1.80225e-117
-1.46604e-119
-1.01819e-106
-7.64407e-109
-3.79968e-97
-2.60504e-99
-9.54382e-89
-5.84314e-91
1.99605e-80
1.0602e-82
5.63291e-72
2.48e-74
8.44372e-66
2.79033e-68
1.09546e-63
2.23146e-66
7.23163e-62
7.15034e-65
1.99203e-59
4.60266e-64
7.73976e-17
-7.76719e-17
1.82963e-16
-1.46729e-16
2.98045e-16
-2.56396e-16
-2.70834e-16
0
0
0
0
0
0
0
0
8.84752e-309
3.19236e-310
1.35045e-273
4.03567e-275
-1.77768e-271
-4.51261e-273
-6.19612e-250
-1.36401e-251
-2.34989e-228
-4.55578e-230
-2.9684e-209
-5.12413e-211
-1.00686e-191
-1.56652e-193
-2.2279e-175
-3.17071e-177
-2.86054e-160
-3.76383e-162
-2.37763e-146
-2.89986e-148
-1.14373e-133
-1.28802e-135
-5.02131e-122
-5.17583e-124
-2.55035e-111
-2.39712e-113
-1.17216e-101
-9.96502e-104
-6.91851e-93
-5.25504e-95
-6.7586e-85
-4.444e-87
-1.11245e-77
-6.05885e-80
-1.88063e-71
-7.91174e-74
4.25648e-66
1.20093e-68
4.65362e-66
6.07686e-66
9.24197e-66
7.1602e-65
1.87099e-13
-1.87099e-13
4.77267e-13
-4.45295e-13
8.04989e-13
-7.56729e-13
9.77261e-13
-9.84614e-13
-9.64344e-13
9.88386e-270
1.55793e-270
2.26371e-269
1.83801e-270
5.617e-269
3.10353e-270
1.53895e-268
6.35083e-270
4.81829e-268
1.54769e-269
1.80861e-267
4.71992e-269
-5.92532e-251
-1.3045e-252
-1.76111e-233
-3.37067e-235
-4.03694e-216
-6.86584e-218
-1.29938e-199
-1.98563e-201
-4.89105e-184
-6.79477e-186
-2.62741e-169
-3.38969e-171
-1.98096e-155
-2.41368e-157
-1.98628e-142
-2.28836e-144
-2.02012e-130
-2.17398e-132
-2.89408e-119
-2.84677e-121
-6.92646e-109
-6.17381e-111
-1.75138e-99
-1.39319e-101
-7.65482e-91
-5.31659e-93
-8.32776e-83
-4.72788e-85
-1.5186e-75
-6.33615e-78
-1.2045e-68
-2.98332e-71
-1.25016e-62
-8.66622e-66
1.53141e-10
-1.53141e-10
6.39531e-10
-4.89548e-10
1.43889e-09
-8.0964e-10
2.21254e-09
-7.91737e-10
3.06097e-09
-8.67878e-10
3.62581e-09
-5.8489e-10
1.4231e-09
7.82912e-187
2.62984e-186
1.92485e-187
5.90427e-187
4.78917e-188
1.44593e-187
1.1731e-188
3.61608e-188
2.78027e-189
8.95069e-189
6.3023e-190
2.15004e-189
1.35514e-190
4.94716e-190
2.74647e-191
1.08049e-190
5.21962e-192
2.22451e-191
9.26246e-193
4.29337e-192
-1.25587e-181
-9.98834e-184
-2.43115e-167
-1.99164e-169
-8.20329e-154
-7.06852e-156
-4.54953e-141
-4.03985e-143
-3.03382e-129
-2.64691e-131
-3.32515e-118
-2.67407e-120
-6.72486e-108
-4.86456e-110
-1.47049e-98
-9.20812e-101
-5.9559e-90
-3.05315e-92
-6.6462e-82
-2.2614e-84
-1.24255e-74
-1.43227e-77
1.29291e-07
-1.29291e-07
4.90483e-07
-3.61192e-07
1.0435e-06
-5.53173e-07
1.79391e-06
-7.50891e-07
2.73267e-06
-9.39559e-07
3.70434e-06
-9.72445e-07
4.70949e-06
-1.006e-06
5.76109e-06
-1.05217e-06
-9.62889e-07
6.75238e-05
-2.55486e-05
8.20948e-05
-1.4571e-05
9.25901e-05
-1.04953e-05
0.000100659
-8.06898e-06
0.000106959
-6.29963e-06
0.000111989
-5.03002e-06
0.000116082
-4.09298e-06
0.000119436
-3.35388e-06
0.000122187
-2.75183e-06
0.000124475
-2.28742e-06
0.000126406
-1.92723e-06
0.000128005
-1.59878e-06
0.000129291
-1.28636e-06
0.000130316
-1.02424e-06
0.00013116
-8.44258e-07
0.000131921
-7.60881e-07
0.000132634
-7.12669e-07
0.000133334
-7.00481e-07
0.000134055
-7.20677e-07
0.00013489
-8.35431e-07
0.000135911
-1.03512e-06
0.000137071
-1.28939e-06
0.000138217
-1.50722e-06
0.000139265
-1.60084e-06
0.000140265
-1.7505e-06
0.00014122
-1.89529e-06
0.000142026
-1.77838e-06
0.000142725
-1.70486e-06
0.00014336
-1.68696e-06
-1.51577e-06
0.000166566
-5.42633e-05
0.000192535
-4.05394e-05
0.000212581
-3.0542e-05
0.000228977
-2.44641e-05
0.000242588
-1.9911e-05
0.000254069
-1.65113e-05
0.000263944
-1.3968e-05
0.000272572
-1.19815e-05
0.000280198
-1.03779e-05
0.000287013
-9.10242e-06
0.000293177
-8.09099e-06
0.000298806
-7.22753e-06
0.000303974
-6.45532e-06
0.000308735
-5.78501e-06
0.000313128
-5.23728e-06
0.000317185
-4.81803e-06
0.00032093
-4.45756e-06
0.000324376
-4.14582e-06
0.000327527
-3.87188e-06
0.000330382
-3.69094e-06
0.000332938
-3.59038e-06
0.000335171
-3.5232e-06
0.000337002
-3.33776e-06
0.000338327
-2.92567e-06
0.000339257
-2.68114e-06
0.000339833
-2.47077e-06
0.000340075
-2.02068e-06
0.000340068
-1.6978e-06
0.000339919
-1.53824e-06
-1.35186e-06
0.000527869
-6.03802e-05
0.000543203
-5.58738e-05
0.000558776
-4.61152e-05
0.000573705
-3.93929e-05
0.000587937
-3.41429e-05
0.000601144
-2.97182e-05
0.000613337
-2.61616e-05
0.000624633
-2.32772e-05
0.000635125
-2.08706e-05
0.000644917
-1.88941e-05
0.000654127
-1.73004e-05
0.000662821
-1.59224e-05
0.00067103
-1.4664e-05
0.000678776
-1.35307e-05
0.000686084
-1.25455e-05
0.000692972
-1.17062e-05
0.000699449
-1.09346e-05
0.000705504
-1.02002e-05
0.000711116
-9.48468e-06
0.000716253
-8.82706e-06
0.000720875
-8.21279e-06
0.000724913
-7.56132e-06
0.000728175
-6.59952e-06
0.000730461
-5.21201e-06
0.000731969
-4.18864e-06
0.000732748
-3.25055e-06
0.000732842
-2.11416e-06
0.000732353
-1.20863e-06
0.000731746
-9.31962e-07
-6.78447e-07
0.00163871
-4.90995e-05
0.00163034
-4.75003e-05
0.00162595
-4.17208e-05
0.00162249
-3.59385e-05
0.00161938
-3.10279e-05
0.00161625
-2.65924e-05
0.00161278
-2.26878e-05
0.00160889
-1.93863e-05
0.00160467
-1.66531e-05
0.00160035
-1.4577e-05
0.00159627
-1.32172e-05
0.00159266
-1.23116e-05
0.00158967
-1.16744e-05
0.00158741
-1.12709e-05
0.00158595
-1.10917e-05
0.00158532
-1.10727e-05
0.00158545
-1.10675e-05
0.00158621
-1.09606e-05
0.00158742
-1.06868e-05
0.0015888
-1.02092e-05
0.00159009
-9.49973e-06
0.00159094
-8.41497e-06
0.00159092
-6.58301e-06
0.00158986
-4.15017e-06
0.00158774
-2.06337e-06
0.00158443
5.09221e-08
0.00157991
2.41049e-06
0.00157413
4.57313e-06
0.00156865
4.54717e-06
3.28551e-06
0.00153869
-4.56288e-05
0.00153611
-4.49169e-05
0.0015355
-4.11091e-05
0.00153568
-3.61233e-05
0.00153587
-3.12148e-05
0.00153579
-2.65176e-05
0.0015352
-2.20961e-05
0.00153388
-1.80647e-05
0.00153172
-1.44878e-05
0.00152872
-1.15802e-05
0.00152501
-9.50769e-06
0.00152066
-7.96049e-06
0.00151576
-6.77527e-06
0.0015104
-5.90701e-06
0.00150464
-5.3401e-06
0.00149855
-4.9835e-06
0.00149215
-4.65887e-06
0.00148534
-4.15565e-06
0.00147802
-3.36776e-06
0.00147
-2.18916e-06
0.00146103
-5.30377e-07
0.00145081
1.80394e-06
0.00143934
4.89327e-06
0.00142742
7.77162e-06
0.00141475
1.06058e-05
0.00140124
1.35547e-05
0.00138697
1.66821e-05
0.00137194
1.96021e-05
0.00135753
1.89624e-05
1.15612e-05
0.00154889
-4.38923e-05
0.00154766
-4.36906e-05
0.00154762
-4.10657e-05
0.00154838
-3.68907e-05
0.00154934
-3.21725e-05
0.00155021
-2.7388e-05
0.00155078
-2.26696e-05
0.00155081
-1.80904e-05
0.00155014
-1.38195e-05
0.00154884
-1.02819e-05
0.00154696
-7.61892e-06
0.00154431
-5.31481e-06
0.00154076
-3.2217e-06
0.00153617
-1.3195e-06
0.00153039
4.42818e-07
0.00152322
2.18327e-06
0.00151444
4.12288e-06
0.0015038
6.47695e-06
0.00149104
9.39962e-06
0.0014758
1.30448e-05
0.00145784
1.74356e-05
0.00143696
2.2679e-05
0.00141381
2.80413e-05
0.00139054
3.10423e-05
0.00136695
3.42039e-05
0.00134321
3.72912e-05
0.00131959
4.03011e-05
0.0012962
4.29943e-05
0.00127401
4.11468e-05
2.33535e-05
0.00155032
-4.23827e-05
0.00154844
-4.18093e-05
0.00154713
-3.97519e-05
0.00154626
-3.603e-05
0.00154554
-3.14523e-05
0.00154477
-2.66128e-05
0.00154376
-2.16583e-05
0.00154217
-1.65037e-05
0.00153963
-1.12811e-05
0.00153602
-6.67419e-06
0.00153139
-2.98847e-06
0.00152537
7.04642e-07
0.00151778
4.37639e-06
0.00150832
8.13476e-06
0.00149681
1.19552e-05
0.00148303
1.5961e-05
0.00146677
2.03882e-05
0.00144775
2.54916e-05
0.00142581
3.1338e-05
0.00140085
3.80135e-05
0.00137277
4.55107e-05
0.00134175
5.37007e-05
0.00130904
6.07459e-05
0.00127778
6.23047e-05
0.00124759
6.44008e-05
0.00121863
6.62512e-05
0.00119105
6.78722e-05
0.00116487
6.91805e-05
0.00113981
6.62078e-05
3.70837e-05
0.00153416
-3.73133e-05
0.00152878
-3.64233e-05
0.00152281
-3.37857e-05
0.00151621
-2.94254e-05
0.00150919
-2.44386e-05
0.00150163
-1.90445e-05
0.00149349
-1.35248e-05
0.00148441
-7.41975e-06
0.00147385
-7.19441e-07
0.00146144
5.73161e-06
0.00144686
1.15893e-05
0.00143029
1.72761e-05
0.00141182
2.28442e-05
0.00139127
2.86901e-05
0.0013688
3.44231e-05
0.00134434
4.04232e-05
0.00131789
4.68407e-05
0.0012895
5.38763e-05
0.00125923
6.16113e-05
0.00122714
7.01014e-05
0.00119335
7.9297e-05
0.00115808
8.89752e-05
0.00112258
9.62443e-05
0.00108999
9.48909e-05
0.00105964
9.47578e-05
0.00103144
9.44513e-05
0.0010053
9.40073e-05
0.000980944
9.3539e-05
0.000956422
9.07293e-05
5.00868e-05
0.00143434
-2.20143e-05
0.00141777
-1.98581e-05
0.00140056
-1.65744e-05
0.001382
-1.08616e-05
0.00136309
-5.53418e-06
0.00134286
1.18588e-06
0.00132066
8.67856e-06
0.00129683
1.64102e-05
0.00127213
2.39767e-05
0.00124686
3.09999e-05
0.00122132
3.71357e-05
0.00119537
4.32287e-05
0.00116886
4.93464e-05
0.00114186
5.56924e-05
0.00111403
6.22516e-05
0.00108529
6.91626e-05
0.00105559
7.65466e-05
0.00102493
8.45385e-05
0.000993385
9.31519e-05
0.000961096
0.00010239
0.000928199
0.000112194
0.000894749
0.000122425
0.000861754
0.00012924
0.00083218
0.000124465
0.00080536
0.000121578
0.000781034
0.000118777
0.000758778
0.000116263
0.000739195
0.000113122
0.000715673
0.000114252
6.60387e-05
0.00113566
0.00110497
0.00107379
0.00104379
0.00101466
0.000987552
0.000962942
0.000940493
0.000919494
0.000899016
0.000878082
0.000856311
0.000833394
0.000809198
0.000783645
0.000756802
0.000728851
0.000700064
0.000670726
0.000641112
0.00061147
0.000581749
0.000552528
0.000526829
0.000504299
0.000484369
0.000466401
0.000451492
0.000429737
)
;

boundaryField
{
    walls
    {
        type            calculated;
        value           nonuniform List<scalar> 
100
(
0
0
0
0
0
0
0
3.50789e-279
2.0405e-240
-1.26887e-187
0
0
0
0
0
0
0
0
0
0
0
0
0
0
3.97602e-302
6.04168e-265
2.72469e-236
2.00127e-211
1.72166e-189
5.74741e-170
1.96116e-152
1.15928e-136
1.7805e-122
1.00291e-109
2.76232e-98
4.7545e-88
6.49132e-79
8.51579e-71
1.31724e-63
2.89693e-57
1.14613e-51
9.17543e-47
9.43977e-43
1.57039e-40
1.15485e-38
5.07155e-37
1.64304e-26
1.66781e-25
8.92608e-25
9.97828e-25
9.28204e-06
1.08262e-05
1.46063e-05
1.91418e-05
2.35902e-05
2.82985e-05
3.32885e-05
3.88596e-05
4.49759e-05
5.14782e-05
5.80695e-05
6.49989e-05
7.22636e-05
7.98891e-05
8.78042e-05
9.60057e-05
0.000104497
0.000113325
0.00012249
0.000132004
0.000141836
0.000152146
0.000158461
0.000150164
0.000144108
0.000138707
0.000134231
0.000128032
0.000136007
8.03443e-05
0.000262546
0.000160404
0.000114844
9.08671e-05
7.73986e-05
6.8932e-05
6.22138e-05
5.50762e-05
4.26957e-05
-2.49046e-06
2.22545e-05
2.18579e-05
2.21561e-05
2.42984e-05
2.68575e-05
2.87223e-05
3.01924e-05
3.12943e-05
3.19253e-05
3.0602e-05
)
;
    }
    topInlet
    {
        type            calculated;
        value           nonuniform List<scalar> 10(-0.000174246 -0.000370233 -0.000799057 -0.0017264 -0.00154049 -0.00154384 -0.00154678 -0.00154938 -0.00155119 -0.00155304);
    }
    bottomInlet
    {
        type            calculated;
        value           uniform 0;
    }
    outlet
    {
        type            calculated;
        value           nonuniform List<scalar> 
20
(
5.19275e-24
3.48131e-23
3.33416e-22
4.55666e-21
9.77061e-20
3.68858e-18
3.12022e-16
6.8207e-13
2.17708e-09
6.72542e-06
0.000143913
0.000339756
0.000731073
0.00156469
0.00134925
0.00126222
0.00112608
0.000943419
0.000699721
0.000415431
)
;
    }
    frontBack
    {
        type            empty;
        value           nonuniform 0();
    }
}


// ************************************************************************* //
