/*--------------------------------*- C++ -*----------------------------------*\
| =========                 |                                                 |
| \\      /  F ield         | OpenFOAM: The Open Source CFD Toolbox           |
|  \\    /   O peration     | Version:  4.x                                   |
|   \\  /    A nd           | Web:      www.OpenFOAM.org                      |
|    \\/     M anipulation  |                                                 |
\*---------------------------------------------------------------------------*/
FoamFile
{
    version     2.0;
    format      ascii;
    class       volScalarField;
    location    "0.3";
    object      alpha.upper;
}
// * * * * * * * * * * * * * * * * * * * * * * * * * * * * * * * * * * * * * //

dimensions      [0 0 0 0 0 0 0];

internalField   nonuniform List<scalar> 
800
(
0
0
0
0
1.15611e-321
1.16599e-321
1.17588e-321
1.18576e-321
1.18576e-321
1.19564e-321
0
0
0
0
1.10671e-321
1.10671e-321
1.10671e-321
1.11659e-321
1.11659e-321
1.12647e-321
0
0
0
0
1.09683e-321
1.09683e-321
1.09683e-321
1.10671e-321
1.10671e-321
1.10671e-321
0
0
0
0
1.08694e-321
1.08694e-321
1.09683e-321
1.09683e-321
1.09683e-321
1.09683e-321
0
0
0
0
1.08694e-321
1.08694e-321
1.08694e-321
1.09683e-321
1.09683e-321
1.09683e-321
0
0
0
0
1.08694e-321
1.08694e-321
1.08694e-321
1.09683e-321
1.09683e-321
1.09683e-321
0
0
0
0
9.68369e-322
9.7825e-322
9.7825e-322
9.88131e-322
9.88131e-322
9.88131e-322
0
0
0
0
2.19365e-321
2.23318e-321
2.2727e-321
2.30235e-321
2.33199e-321
2.33199e-321
0
0
0
0
1.04347e-320
1.06521e-320
1.08497e-320
3.0906e-294
1.76631e-269
2.83978e-266
0
0
0
0
2.2648e-320
2.32408e-320
2.37349e-320
6.33128e-275
4.71326e-236
7.21733e-182
1
1
1
1
1
1
1
1
1
1
1
1
1
1
1
1
1
1
1
1
1
1
1
1
1
1
1
1
1
1
1
1
1
1
1
1
1
1
1
1
1
1
1
1
1
1
1
1
1
1
1
1
1
1
1
1
1
1
1
1
1
1
1
1
1
1
1
1
1
1
1
1
1
1
1
1
1
1
1
1
1
1
1
1
1
1
1
1
1
1
1
1
1
1
1
1
1
1
1
1
1.54148e-321
1.45255e-321
1.36362e-321
1.26481e-321
1.76987e-297
2.22924e-260
8.52773e-232
5.3654e-207
3.9828e-185
1.15915e-165
3.49729e-148
1.84547e-132
2.54744e-118
1.29721e-105
3.24726e-94
5.10241e-84
6.38985e-75
7.71625e-67
1.1024e-59
2.24498e-53
8.24533e-48
6.13493e-43
6.04049e-39
1.05692e-36
8.073e-35
3.6683e-33
1.22453e-22
1.30017e-21
6.54156e-21
1.22242e-20
1.40315e-321
1.3241e-321
1.24505e-321
1.16599e-321
3.46444e-299
2.30538e-263
1.4752e-262
3.44011e-261
3.52583e-237
2.92934e-212
5.34354e-190
6.93173e-170
9.30291e-152
1.8422e-135
7.65458e-121
9.39645e-108
4.72649e-96
1.26431e-85
2.37758e-76
3.96717e-68
7.83227e-61
2.13012e-54
3.31172e-49
1.00326e-46
1.30974e-44
1.03074e-42
6.38894e-22
6.21566e-21
2.75221e-20
4.90939e-20
1.36362e-321
1.28457e-321
1.20552e-321
1.12647e-321
1.79222e-300
9.16945e-265
9.37557e-264
1.94949e-262
5.38668e-239
3.24971e-237
2.81586e-215
1.29717e-193
6.00836e-174
3.759e-156
6.05319e-140
3.04747e-125
6.0863e-112
5.77256e-100
3.28652e-89
1.36962e-79
5.49995e-71
2.40452e-63
3.15222e-57
1.28713e-54
2.34565e-52
2.65067e-50
5.93574e-21
5.13787e-20
2.00777e-19
3.50161e-19
1.36362e-321
1.28457e-321
1.20552e-321
1.12647e-321
1.09979e-301
4.61055e-266
6.66516e-265
1.55807e-263
2.82557e-240
3.3187e-238
1.84859e-216
2.61058e-195
3.37717e-183
2.97907e-165
8.63882e-149
9.88458e-134
4.20142e-120
1.02792e-107
1.7967e-96
2.61967e-86
4.03441e-77
7.05529e-69
2.76442e-62
1.09181e-59
2.07891e-57
3.13983e-55
9.43348e-20
6.99742e-19
2.37178e-18
4.01957e-18
1.36362e-321
1.28457e-321
1.20552e-321
1.12647e-321
6.86657e-303
2.36701e-267
4.51263e-266
1.25014e-264
1.67668e-241
3.86833e-239
1.8579e-217
1.8526e-196
7.76085e-184
4.26627e-166
6.08946e-150
6.03286e-136
1.23124e-122
3.14171e-110
5.58491e-99
8.75511e-89
1.56536e-79
4.09786e-71
1.8756e-64
5.36979e-62
7.89305e-60
3.13886e-57
2.79293e-18
1.66614e-17
4.73203e-17
7.70334e-17
1.36362e-321
1.28457e-321
1.20552e-321
1.12647e-321
4.2668e-304
1.20765e-268
2.94714e-267
1.01291e-265
1.09532e-242
5.64514e-240
2.70378e-218
2.11482e-197
-7.95139e-183
-6.52398e-165
-6.95741e-149
-1.84065e-134
-9.23264e-122
2.08957e-109
3.90742e-98
4.45552e-88
5.01869e-79
6.09948e-71
1.44323e-64
2.67157e-62
3.09826e-60
2.17201e-57
1.94451e-16
8.3288e-16
1.86989e-15
2.72461e-15
1.24505e-321
1.16599e-321
1.08694e-321
1.02766e-321
2.84204e-305
6.62497e-270
2.21599e-268
1.15411e-266
1.17383e-243
-1.9958e-233
-5.46282e-211
-1.93146e-190
-7.04149e-172
-3.82505e-155
-3.28179e-140
-8.95419e-127
-1.13371e-114
-6.40316e-104
-2.38822e-94
-5.99462e-86
1.25298e-77
3.53464e-69
5.29916e-63
6.88005e-61
4.54797e-59
1.25538e-56
2.51737e-14
2.75935e-14
2.69746e-14
2.77237e-14
3.00392e-321
2.78653e-321
2.57902e-321
2.3814e-321
1.49677e-305
2.23575e-270
-2.886e-268
-9.88146e-247
-3.68702e-225
-4.58834e-206
-1.5349e-188
-3.35269e-172
-4.25309e-157
-3.49552e-143
-1.66394e-130
-7.23407e-119
-3.64092e-108
-1.65934e-98
-9.71837e-90
-9.42709e-82
-1.54194e-74
-2.59243e-68
5.84168e-63
5.84432e-63
6.45415e-63
-1.74401e-12
-4.65192e-12
1.10905e-13
1.53223e-13
1.68075e-13
5.89195e-266
1.16967e-265
2.63183e-265
6.69989e-265
1.98109e-264
7.1032e-264
-2.24075e-247
-6.45066e-230
-1.4387e-212
-4.52157e-196
-1.66645e-180
-8.7844e-166
-6.51113e-152
-6.42854e-139
-6.44691e-127
-9.11866e-116
-2.15709e-105
-5.39674e-96
-2.33623e-87
-2.51978e-79
-4.55988e-72
-3.59278e-65
-3.7088e-59
-4.84744e-10
-1.83789e-09
-3.92632e-09
-5.87135e-09
5.30774e-10
8.5939e-10
9.31931e-10
4.70331e-191
7.98286e-192
1.5462e-192
3.1994e-193
6.63517e-194
1.34071e-194
2.5864e-195
4.68255e-196
8.01133e-197
1.33191e-197
-9.27586e-178
-1.76019e-163
-5.83392e-150
-3.18361e-137
-2.09213e-125
-2.26275e-114
-4.52128e-104
-9.77865e-95
-3.92158e-86
-4.33741e-78
-8.04542e-71
0.000435895
0.00201342
0.00487445
0.0089557
0.0143786
0.0203006
0.026643
0.0326461
0.0426612
0.995259
0.990024
0.984478
0.979105
0.973733
0.968271
0.96264
0.956711
0.950377
0.94379
0.937227
0.930491
0.92336
0.915866
0.908289
0.901193
0.894791
0.889225
0.884685
0.881176
0.880045
0.880926
0.882831
0.885584
0.889054
0.893301
0.897647
0.902076
0.906099
0.912499
1
1
1
1
1
1
1
1
1
1
1
1
1
1
1
1
1
1
1
1
1
1
1
1
1
1
1
1
1
1
1
1
1
1
1
1
1
1
1
1
1
1
1
1
1
1
1
1
1
1
1
1
1
1
1
1
1
1
1
1
1
1
1
1
1
1
1
1
1
1
1
1
1
1
1
1
1
1
1
1
1
1
1
1
1
1
1
1
1
1
1
1
1
1
1
1
1
1
1
1
1
1
1
1
1
1
1
1
1
1
1
1
1
1
1
1
1
1
1
1
1
1
1
1
1
1
1
1
1
1
1
1
1
1
1
1
1
1
1
1
1
1
1
1
1
1
1
1
1
1
1
1
1
1
1
1
1
1
1
1
1
1
1
1
1
1
1
1
1
1
1
1
1
1
1
1
1
1
1
1
1
1
1
1
1
1
1
1
1
1
1
1
1
1
1
1
1
1
1
1
1
1
1
1
1
1
1
1
1
1
1
1
1
1
1
1
1
1
1
1
1
1
1
1
1
1
1
1
1
1
1
1
1
1
1
1
1
1
1
1
1
1
1
1
1
1
1
1
1
1
1
1
1
1
1
1
1
1
1
1
1
1
1
1
1
1
1
1
1
1
)
;

boundaryField
{
    walls
    {
        type            zeroGradient;
    }
    topInlet
    {
        type            fixedValue;
        value           uniform 1;
    }
    bottomInlet
    {
        type            fixedValue;
        value           uniform 0;
    }
    outlet
    {
        type            inletOutlet;
        inletValue      uniform 0;
        value           nonuniform List<scalar> 
20
(
1.22242e-20
4.90939e-20
3.50161e-19
4.01957e-18
7.70334e-17
2.72461e-15
2.77237e-14
1.68075e-13
9.31931e-10
0.0426612
0.912499
1
1
1
1
1
1
1
1
1
)
;
    }
    frontBack
    {
        type            empty;
    }
}


// ************************************************************************* //
