/*--------------------------------*- C++ -*----------------------------------*\
| =========                 |                                                 |
| \\      /  F ield         | OpenFOAM: The Open Source CFD Toolbox           |
|  \\    /   O peration     | Version:  4.x                                   |
|   \\  /    A nd           | Web:      www.OpenFOAM.org                      |
|    \\/     M anipulation  |                                                 |
\*---------------------------------------------------------------------------*/
FoamFile
{
    version     2.0;
    format      ascii;
    class       volScalarField;
    location    "0.3";
    object      p;
}
// * * * * * * * * * * * * * * * * * * * * * * * * * * * * * * * * * * * * * //

dimensions      [1 -1 -2 0 0 0 0];

internalField   nonuniform List<scalar> 
800
(
3560.61
3411.4
3423.5
3704.33
4064.45
4308.54
4494.24
4627.68
4696.48
4492.84
4286.64
4077.88
2526.96
1607.39
1056.24
721.286
380.595
73.7416
-103.505
-186.235
4975.29
5206.12
3393.95
2611.98
2597.11
2745.41
2826.2
2845.31
2784.36
2682.76
5974.73
6447.45
4240.6
3189.64
2994.93
2838.07
2512.92
2110.53
1744.14
1626.41
7082.41
7661.36
4996.34
3741.09
3509.89
3343.63
3054.1
2758.47
2550.25
2552.03
8293.27
8894.1
5736.39
4303.43
3993.46
3758.41
3420.59
3050.48
2672.35
2470.59
9815.28
10037.8
6721.14
5227.17
4649.2
4157.84
3666.62
3172.46
2559.5
1896.49
12060.7
9468.2
7008.24
5988.5
5374.07
4857.25
4358.23
3784.36
2801.24
664.603
17341.7
10859.3
8001.66
6471.1
5563.88
4974.05
4498.65
3986.46
3025.78
-24.164
11854.4
7077.7
5010.8
3937.16
3335.91
2959.91
2665.85
2360
1838.25
-73.4349
11979.5
7107.54
5011.54
3930.17
3329.33
2954.01
2658.16
2346.73
1813.95
-110.241
17623
10966.4
8039
6484.94
5572.21
4978.68
4496.16
3970.68
2987.17
-86.6899
12230.7
9567.8
7044.64
5997.48
5372.46
4846.72
4337.34
3748.48
2742.11
584.034
9879.54
10075.1
6679.22
5156.78
4572.21
4077.93
3583.08
3082.17
2458.91
1787.86
8257.7
8855.39
5633.66
4175.46
3863.55
3629.2
3287.45
2908.17
2516.22
2304.99
6964.07
7545.89
4827.21
3547.84
3314.43
3148.31
2856.22
2559.13
2355.77
2361.35
5779.04
6254.92
4003.34
2933.17
2736.03
2571.04
2227.79
1803.08
1426.11
1342.92
4706.92
4934.47
3084.27
2299.22
2307.17
2467.83
2549.4
2548.62
2490.09
2362.88
3957.17
3725.56
2111.2
1158.07
624.468
288.125
-53.365
-341.801
-523.854
-619.986
3180.67
3056.39
3071.38
3360.98
3707.62
3950.04
4134.51
4270.82
4341.3
4146.15
2241.04
2235.97
2569.87
2877.81
3084.14
3208.95
3284.61
3342.79
3388.72
3410.75
3395.09
3355.64
3301.12
3234.64
3158.11
3074.55
2983.55
2888.89
2791.34
2693.26
2594.84
2499.27
2385.82
2277.33
2199.1
2131.34
2073.76
1991.49
2101.79
1349.51
-331.062
50.3229
286.562
246.032
182.819
122.463
28.2851
-85.7567
-150.906
-225.385
-275.422
-290.728
-290.994
-268.447
-232.984
-199.749
-163.171
-125.296
-90.7306
-56.2921
-25.5548
-0.661544
16.017
33.6048
53.145
65.1763
73.0221
83.7626
64.8585
11.1244
2199.03
2212.58
2303.38
2308.23
2269.3
2210.59
2124.46
1997.77
1825.61
1719.5
1603.25
1515.19
1444.98
1374.08
1309.96
1263.07
1208.29
1159.18
1113.77
1067.1
1022.56
981.623
933.957
893.928
867.534
841.775
819.866
790.722
834.927
513.448
1965.47
2281.92
2531.68
2572.26
2394.73
2095.36
1742.7
1365.07
1003.63
724.12
591.352
500.83
447.565
425.138
421.434
431.285
458.404
478.487
491.757
513.428
527.592
534.279
527.62
525.068
532.635
532.825
529.742
521.853
532.86
216.492
3001.14
3505.68
3837.19
3784.68
3415.71
2937.65
2469.99
2047.83
1697.32
1451.22
1296.79
1179.07
1075.89
991.796
934.96
897.93
867.827
836.45
804.485
762.389
729.833
700.482
659.569
630.323
615.859
597.568
580.55
560.737
572.86
240.411
3396.63
4328.69
4829.87
4637.26
4036.44
3363.95
2736.66
2171.35
1685.42
1303.67
1035.41
850.816
723.996
644.778
602.854
583.883
579.119
574.095
568.199
565.043
563.2
557.429
543.833
533.248
534.103
531.488
524.569
512.013
518.646
172.454
3994.87
5901.35
6608.14
6032.78
5034.59
4086.85
3256.4
2541.09
1958.01
1523.53
1231.55
1040.29
909.408
820.574
765.247
732.529
711.088
689.851
667.704
643.197
621.541
599.962
569.63
547.412
535.236
516.513
500.166
482.856
484.862
143.214
3197.02
6826.21
7732.81
6736.25
5450.57
4331.57
3385.94
2597.9
1972.14
1510.56
1196.64
986.549
840.59
741.178
679.694
644.295
623.026
604.463
586.533
568.797
554.599
539.6
515.799
497.8
489.618
479.299
470.466
455.311
457.82
115.654
2326.95
7180.93
8076.24
6941.17
5586.14
4419.06
3439.34
2629.64
1990.29
1519.74
1199.45
985.062
836.83
736.593
674.927
639.498
618.003
599.138
580.817
562.598
547.755
532.187
507.932
489.945
482.133
469.889
459.447
443.69
446.186
103.537
2078.17
7370.64
8172.79
6988.7
5614.89
4435.33
3447.7
2633.37
1991.25
1519.04
1197.64
982.48
833.878
733.549
671.864
636.385
614.722
595.665
577.133
558.695
543.599
527.783
503.267
485.027
476.896
464.782
454.16
438.29
440.814
97.9953
2067.29
7364.57
8167.53
6984.07
5610.66
4431.34
3443.84
2629.58
1987.54
1515.46
1194.12
978.918
830.317
730.058
668.458
633.046
611.382
592.318
573.771
555.326
540.207
524.358
499.799
481.511
473.304
461.308
450.692
434.837
437.37
94.5026
2294.03
7160.72
8058.63
6924.96
5570.69
4404.03
3424.48
2614.79
1975.58
1505.43
1185.22
970.509
822.14
722.095
660.729
625.559
604.079
585.221
566.88
548.676
533.768
518.088
493.667
475.52
467.436
455.577
445.036
429.315
431.857
88.9856
3136.1
6783.76
7695.81
6700.2
5414.62
4295.49
3349.45
2560.82
1935.04
1474.26
1160.2
948.73
801.747
702.2
641.019
606.069
584.874
566.587
549.008
531.85
518.025
503.264
479.529
462.005
454.509
443.025
432.668
417.36
419.986
77.207
3907.43
5832.49
6543.28
5963.93
4961.78
4011.17
3177.78
2459.84
1876.88
1446.06
1156.41
964.761
833.395
744.737
689.429
655.536
630.943
606.808
581.955
556.299
533.869
511.398
480.676
457.003
444.918
429.549
413.909
395.801
397.429
55.6335
3238.45
4181.13
4687.66
4495.52
3894.69
3221.14
2589.81
2018.18
1527.81
1144.69
872.306
684.384
561.024
487.043
449.629
435.427
432.243
428.069
423.054
418.836
415.693
409.078
392.895
383.873
382.589
375.571
371.557
359.032
364.934
15.6316
2796.47
3302.24
3638.11
3589.1
3224
2747.65
2278.83
1856.56
1515.85
1281.65
1122.83
988.074
873.487
790.776
736.215
696.858
660.894
626.6
590.585
552.102
520.564
490.537
450.645
419.202
403.37
384.335
367.938
347.128
358.84
24.9805
1702.24
2018.2
2266.61
2308.23
2132.35
1826.44
1459.43
1065.53
703.37
450.632
317.048
233.176
187.339
162.269
160.54
176.935
199.048
215.174
231.223
248.773
259.697
264.669
256.369
253
259.282
257.458
255.341
247.311
257.951
-62.1333
1882.93
1903.26
2001.95
2022.76
2004.38
1943.99
1847.66
1693.08
1533.13
1411.82
1294.59
1204.34
1127.96
1044.51
989.026
935.602
881.844
833.59
786.5
739.145
693.918
651.472
602.189
559.964
531.558
503.406
480.138
449.593
492.66
169.474
-773.136
-397.431
-172.164
-212.169
-222.408
-280.393
-385.163
-480.886
-553.902
-633.827
-670.156
-684.614
-682.085
-647.798
-619.155
-586.523
-549.331
-512.379
-477.345
-443.921
-414.155
-389.617
-372.979
-355.27
-335.76
-323.838
-314.851
-303.81
-321.751
-379.32
1935.06
1927.26
2255.71
2563.94
2736.79
2849.92
2921.76
2981.94
3025.25
3041.04
3016.54
2973.53
2915.15
2845.27
2763.59
2672.77
2575.22
2473.96
2370.23
2265.28
2159.39
2055.78
1934.34
1818.49
1733.75
1658.33
1595.81
1510.24
1616.74
860.239
)
;

boundaryField
{
    walls
    {
        type            calculated;
        value           nonuniform List<scalar> 
100
(
12.2954
11.0012
9.7069
8.41265
7.1184
5.82414
4.52989
3.23563
1.94138
0.647127
259.427
258.141
256.855
255.57
254.284
252.998
251.712
250.426
249.141
247.855
247.212
247.212
247.212
247.212
247.212
247.212
247.212
247.212
247.212
247.212
247.212
247.212
247.212
247.212
247.212
247.212
247.212
247.212
247.212
247.212
247.212
247.212
247.212
247.212
247.212
247.212
247.212
247.212
247.212
247.212
-244.759
-244.759
-244.759
-244.759
-244.759
-244.759
-244.759
-244.759
-244.759
-244.76
-244.759
-244.759
-244.76
-244.76
-244.759
-244.759
-244.759
-244.759
-244.759
-244.76
-244.76
-244.76
-244.76
-244.76
-244.76
-244.76
-244.76
-244.76
-244.76
-244.76
-12.1734
-10.892
-9.6106
-8.32919
-7.04778
-5.76636
-4.48495
-3.20353
-1.92212
-0.640707
-256.853
-255.58
-254.307
-253.034
-251.761
-250.488
-249.215
-247.942
-246.669
-245.396
)
;
    }
    topInlet
    {
        type            calculated;
        value           nonuniform List<scalar> 10(-14.5328 -19.954 -31.6337 -56.7969 -89.2753 -119.86 -150.444 -181.029 -211.613 -242.198);
    }
    bottomInlet
    {
        type            calculated;
        value           nonuniform List<scalar> 10(244.624 213.733 182.843 151.952 121.061 90.1698 57.366 31.9507 20.1539 14.6784);
    }
    outlet
    {
        type            calculated;
        value           nonuniform List<scalar> 
20
(
231.761
200.86
169.958
139.057
108.155
77.2537
44.4387
19.0147
7.21387
1.73569
-1.72071
-7.14231
-18.826
-43.9979
-76.4873
-107.082
-137.677
-168.272
-198.867
-229.462
)
;
    }
    frontBack
    {
        type            empty;
    }
}


// ************************************************************************* //
