/*--------------------------------*- C++ -*----------------------------------*\
| =========                 |                                                 |
| \\      /  F ield         | OpenFOAM: The Open Source CFD Toolbox           |
|  \\    /   O peration     | Version:  4.x                                   |
|   \\  /    A nd           | Web:      www.OpenFOAM.org                      |
|    \\/     M anipulation  |                                                 |
\*---------------------------------------------------------------------------*/
FoamFile
{
    version     2.0;
    format      ascii;
    class       surfaceScalarField;
    location    "0.25";
    object      alphaPhi;
}
// * * * * * * * * * * * * * * * * * * * * * * * * * * * * * * * * * * * * * //

dimensions      [0 3 -1 0 0 0 0];

internalField   nonuniform List<scalar> 
370
(
2.5287e-44
-1.30268e-55
2.67673e-40
-3.08543e-50
5.47797e-37
-6.90789e-46
4.98122e-35
-1.10781e-43
2.14388e-33
-8.26832e-42
5.76439e-32
-3.85877e-40
5.81394e-26
-7.45688e-26
5.98431e-25
-7.07058e-25
2.87052e-24
-3.16456e-24
-3.32021e-24
1.10078e-54
-6.19024e-64
2.29605e-49
-1.49422e-57
4.67773e-45
-2.00232e-52
7.50381e-43
-4.49429e-50
5.53543e-41
-4.77965e-48
2.55661e-39
-3.23854e-46
4.89959e-25
-5.64528e-25
4.64824e-24
-4.86534e-24
1.99483e-23
-1.84646e-23
-1.81851e-23
9.47963e-63
-4.44842e-69
1.96685e-56
-3.6186e-62
2.35094e-51
-1.27692e-56
5.17676e-49
-3.06731e-54
5.34044e-47
-3.66723e-52
3.52066e-45
-3.62463e-50
6.00988e-24
-6.57441e-24
5.08012e-23
-4.96566e-23
1.93717e-22
-1.6138e-22
-1.57884e-22
1.36302e-67
-2.04168e-71
9.0633e-61
-2.63446e-64
2.73403e-55
-1.21825e-58
6.20962e-53
-2.58659e-56
6.97464e-51
-2.8059e-54
6.51553e-49
-8.76221e-52
1.12922e-22
-1.19497e-22
8.19731e-22
-7.56466e-22
2.72045e-21
-2.0621e-21
-1.99409e-21
1.73498e-69
5.98961e-73
1.63856e-62
-4.77225e-65
5.9155e-57
-2.51843e-59
1.10327e-54
-5.14956e-57
1.05899e-52
-5.3931e-55
2.96453e-50
-4.06439e-52
3.69913e-21
-3.81862e-21
2.16858e-20
-1.87432e-20
6.05644e-20
-4.09407e-20
-3.91357e-20
5.08059e-69
3.2758e-71
2.68824e-62
1.40596e-64
5.71116e-57
1.99695e-59
7.5377e-55
1.09066e-57
5.82494e-53
-2.72675e-55
3.45063e-50
-5.57408e-52
2.70419e-19
-2.74237e-19
1.146e-18
-9.02142e-19
2.54654e-18
-1.48146e-18
-1.25436e-18
5.37393e-68
2.85437e-70
8.50867e-61
3.74611e-63
1.39898e-55
4.62309e-58
1.42507e-53
2.90288e-56
7.44795e-52
7.36423e-55
2.7228e-49
6.29129e-54
7.73976e-17
-7.76719e-17
1.82963e-16
-1.46729e-16
2.98045e-16
-2.56396e-16
-2.70834e-16
-1.5547e-65
-8.46749e-68
-1.82609e-60
-7.68228e-63
4.11339e-56
1.16055e-58
4.54045e-56
6.55683e-56
9.24926e-56
7.34893e-55
1.87099e-13
-1.87099e-13
4.77267e-13
-4.45295e-13
8.04989e-13
-7.56729e-13
9.77261e-13
-9.84614e-13
-9.64344e-13
-1.76621e-63
-7.36929e-66
-9.6883e-58
-2.39961e-60
-1.296e-52
-8.98401e-56
1.53141e-10
-1.53141e-10
6.39531e-10
-4.89548e-10
1.43889e-09
-8.0964e-10
2.21254e-09
-7.91737e-10
3.06097e-09
-8.67878e-10
3.62581e-09
-5.8489e-10
1.4231e-09
-1.28429e-62
-1.48039e-65
1.29291e-07
-1.29291e-07
4.90483e-07
-3.61192e-07
1.0435e-06
-5.53173e-07
1.79391e-06
-7.50891e-07
2.73267e-06
-9.39559e-07
3.70434e-06
-9.72445e-07
4.70949e-06
-1.006e-06
5.76109e-06
-1.05217e-06
-9.62889e-07
0.000135911
-1.03512e-06
0.000137071
-1.28939e-06
0.000138217
-1.50722e-06
0.000139265
-1.60084e-06
0.000140265
-1.7505e-06
0.00014122
-1.89529e-06
0.000142026
-1.77838e-06
0.000142725
-1.70486e-06
0.00014336
-1.68696e-06
-1.51577e-06
0.000332938
-3.59038e-06
0.000335171
-3.5232e-06
0.000337002
-3.33776e-06
0.000338327
-2.92567e-06
0.000339257
-2.68114e-06
0.000339833
-2.47077e-06
0.000340075
-2.02068e-06
0.000340068
-1.6978e-06
0.000339919
-1.53824e-06
-1.35186e-06
0.000720875
-8.21279e-06
0.000724913
-7.56132e-06
0.000728175
-6.59952e-06
0.000730461
-5.21201e-06
0.000731969
-4.18864e-06
0.000732748
-3.25055e-06
0.000732842
-2.11416e-06
0.000732353
-1.20863e-06
0.000731746
-9.31962e-07
-6.78447e-07
0.00159009
-9.49973e-06
0.00159094
-8.41497e-06
0.00159092
-6.58301e-06
0.00158986
-4.15017e-06
0.00158774
-2.06337e-06
0.00158443
5.09221e-08
0.00157991
2.41049e-06
0.00157413
4.57313e-06
0.00156865
4.54717e-06
3.28551e-06
0.00146103
-5.30377e-07
0.00145081
1.80394e-06
0.00143934
4.89327e-06
0.00142742
7.77162e-06
0.00141475
1.06058e-05
0.00140124
1.35547e-05
0.00138697
1.66821e-05
0.00137194
1.96021e-05
0.00135753
1.89624e-05
1.15612e-05
0.00145784
1.74356e-05
0.00143696
2.2679e-05
0.00141381
2.80413e-05
0.00139054
3.10423e-05
0.00136695
3.42039e-05
0.00134321
3.72912e-05
0.00131959
4.03011e-05
0.0012962
4.29943e-05
0.00127401
4.11468e-05
2.33535e-05
0.00137277
4.55107e-05
0.00134175
5.37007e-05
0.00130904
6.07459e-05
0.00127778
6.23047e-05
0.00124759
6.44008e-05
0.00121863
6.62512e-05
0.00119105
6.78722e-05
0.00116487
6.91805e-05
0.00113981
6.62078e-05
3.70837e-05
0.00119335
7.9297e-05
0.00115808
8.89752e-05
0.00112258
9.62443e-05
0.00108999
9.48909e-05
0.00105964
9.47578e-05
0.00103144
9.44513e-05
0.0010053
9.40073e-05
0.000980944
9.3539e-05
0.000956422
9.07293e-05
5.00868e-05
0.000928199
0.000112194
0.000894749
0.000122425
0.000861754
0.00012924
0.00083218
0.000124465
0.00080536
0.000121578
0.000781034
0.000118777
0.000758778
0.000116263
0.000739195
0.000113122
0.000715673
0.000114252
6.60387e-05
0.00061147
0.000581749
0.000552528
0.000526829
0.000504299
0.000484369
0.000466401
0.000451492
0.000429737
)
;

boundaryField
{
    walls
    {
        type            calculated;
        value           nonuniform List<scalar> 
20
(
5.71359e-45
6.82693e-41
1.53387e-37
1.38797e-35
5.99595e-34
1.61901e-32
1.64307e-26
1.66786e-25
8.92658e-25
9.98526e-25
0.000141836
0.000152146
0.000158461
0.000150164
0.000144108
0.000138707
0.000134231
0.000128032
0.000136007
8.03443e-05
)
;
    }
    topInlet
    {
        type            calculated;
        value           nonuniform 0();
    }
    bottomInlet
    {
        type            calculated;
        value           nonuniform 0();
    }
    outlet
    {
        type            calculated;
        value           nonuniform List<scalar> 
20
(
5.19638e-24
3.48131e-23
3.33416e-22
4.55666e-21
9.77061e-20
3.68858e-18
3.12022e-16
6.8207e-13
2.17708e-09
6.72542e-06
0.000143913
0.000339756
0.000731073
0.00156469
0.00134925
0.00126222
0.00112608
0.000943419
0.000699721
0.000415431
)
;
    }
    frontBack
    {
        type            empty;
        value           nonuniform 0();
    }
    procBoundary3to2
    {
        type            processor;
        value           nonuniform List<scalar> 
20
(
-6.29036e-49
-1.00495e-60
-7.11151e-70
-3.28214e-75
-3.6356e-77
-1.49112e-76
6.31879e-75
1.81733e-71
1.77701e-69
1.25762e-68
-0.00013489
-0.000330382
-0.000716253
-0.0015888
-0.00147
-0.0014758
-0.00140085
-0.00122714
-0.000961096
-0.000641112
)
;
    }
}


// ************************************************************************* //
