/*--------------------------------*- C++ -*----------------------------------*\
| =========                 |                                                 |
| \\      /  F ield         | OpenFOAM: The Open Source CFD Toolbox           |
|  \\    /   O peration     | Version:  4.x                                   |
|   \\  /    A nd           | Web:      www.OpenFOAM.org                      |
|    \\/     M anipulation  |                                                 |
\*---------------------------------------------------------------------------*/
FoamFile
{
    version     2.0;
    format      ascii;
    class       volScalarField;
    location    "0.25";
    object      epsilon;
}
// * * * * * * * * * * * * * * * * * * * * * * * * * * * * * * * * * * * * * //

dimensions      [0 2 -3 0 0 0 0];

internalField   nonuniform List<scalar> 
200
(
14312.4
13323.5
12369.7
11516.6
10779.4
10144.5
9594.89
9085.92
8774.56
8000.27
2693.2
2568.43
2446.51
2335.93
2235.1
2143.92
2061.58
1986.56
1922.09
1869.44
711.134
719.912
727.472
733.257
736.637
737.766
737.067
735.339
732.079
751.821
176.11
192.149
210.357
229.027
247.635
265.692
282.848
299.057
314.264
337.859
40.3315
44.9457
51.152
58.6022
67.3251
77.287
88.4094
100.591
113.819
130.441
12.9331
13.171
13.989
15.3849
17.4039
20.104
23.5718
27.9055
33.2492
40.1512
6.52693
5.91109
5.50164
5.33724
5.4122
5.73884
6.33242
7.22636
8.47693
10.2076
4.25484
3.84538
3.5193
3.3065
3.20493
3.21898
3.35953
3.64124
4.08871
4.74759
3.74702
3.41589
3.13831
2.94318
2.83233
2.81154
2.89059
3.08295
3.40906
3.90333
3.66346
3.3469
3.07916
2.88897
2.77899
2.75519
2.82739
3.00922
3.32091
3.79566
3.6576
3.34283
3.07678
2.88815
2.77971
2.75743
2.83122
3.015
3.32938
3.80789
3.72159
3.39804
3.12759
2.93896
2.83451
2.81995
2.90546
3.10577
3.44285
3.95245
4.1862
3.79657
3.4892
3.29346
3.20854
3.23873
3.39598
3.69849
4.17497
4.87464
6.41367
5.83062
5.45549
5.32527
5.43511
5.79236
6.42974
7.38444
8.71911
10.5694
12.9851
13.2391
14.0784
15.5066
17.5806
20.3804
23.9874
28.5154
34.1256
41.4031
40.6745
45.2629
51.4706
58.9754
67.8357
78.046
89.5192
102.157
115.943
133.319
177.173
193.047
211.234
230.068
249.039
267.657
285.462
302.361
318.271
342.848
718.105
726.479
733.805
739.509
742.93
744.224
743.627
741.938
738.734
758.788
2744.42
2613.64
2485.39
2368.82
2262.56
2166.54
2079.89
2001.14
1934.03
1877.43
14632.4
13587.6
12578.2
11675.5
10895.9
10223.2
9642.98
9109.89
8782.15
7980.35
)
;

boundaryField
{
    walls
    {
        Cmu             0.09;
        kappa           0.41;
        E               9.8;
        type            epsilonWallFunction;
        value           nonuniform List<scalar> 
20
(
14312.4
13323.5
12369.7
11516.6
10779.4
10144.5
9594.89
9085.92
8774.56
8000.27
14632.4
13587.6
12578.2
11675.5
10895.9
10223.2
9642.98
9109.89
8782.15
7980.35
)
;
    }
    topInlet
    {
        type            fixedValue;
        value           nonuniform 0();
    }
    bottomInlet
    {
        type            fixedValue;
        value           nonuniform 0();
    }
    outlet
    {
        type            zeroGradient;
    }
    frontBack
    {
        type            empty;
    }
    procBoundary3to2
    {
        type            processor;
        value           nonuniform List<scalar> 
20
(
15338.5
2818
701.041
162.341
37.0368
13.1464
7.30362
4.72876
4.11557
4.01302
4.00528
4.08212
4.6393
7.15993
13.1807
37.4128
163.648
708.608
2874.79
15712.7
)
;
    }
}


// ************************************************************************* //
