/*--------------------------------*- C++ -*----------------------------------*\
| =========                 |                                                 |
| \\      /  F ield         | OpenFOAM: The Open Source CFD Toolbox           |
|  \\    /   O peration     | Version:  4.x                                   |
|   \\  /    A nd           | Web:      www.OpenFOAM.org                      |
|    \\/     M anipulation  |                                                 |
\*---------------------------------------------------------------------------*/
FoamFile
{
    version     2.0;
    format      ascii;
    class       volVectorField;
    location    "0.25";
    object      U;
}
// * * * * * * * * * * * * * * * * * * * * * * * * * * * * * * * * * * * * * //

dimensions      [0 1 -1 0 0 0 0];

internalField   nonuniform List<vector> 
200
(
(8.04805 -0.680563 0)
(7.68144 -0.658831 0)
(7.31325 -0.630901 0)
(6.97396 -0.602915 0)
(6.67749 -0.582625 0)
(6.41653 -0.565013 0)
(6.18566 -0.549531 0)
(5.96368 -0.528805 0)
(5.84311 -0.547647 0)
(5.40446 -0.349598 0)
(12.1154 0.149678 0)
(11.7016 0.140233 0)
(11.2855 0.131223 0)
(10.9007 0.122091 0)
(10.5518 0.11367 0)
(10.2361 0.106773 0)
(9.94922 0.10136 0)
(9.68367 0.0941295 0)
(9.4608 0.102513 0)
(9.08519 0.0834461 0)
(15.5107 -0.21524 0)
(15.076 -0.211205 0)
(14.6296 -0.205084 0)
(14.2094 -0.198781 0)
(13.8175 -0.194268 0)
(13.4538 -0.190443 0)
(13.1167 -0.186774 0)
(12.8016 -0.18212 0)
(12.5185 -0.181378 0)
(12.1813 -0.120936 0)
(17.7769 0.0304962 0)
(17.4023 0.0188457 0)
(16.9969 0.00920495 0)
(16.5991 0.000761186 0)
(16.2133 -0.00741682 0)
(15.843 -0.0145663 0)
(15.49 -0.0203906 0)
(15.1538 -0.025942 0)
(14.842 -0.0224912 0)
(14.5131 -0.00322331 0)
(18.8093 -0.0461753 0)
(18.5635 -0.0433849 0)
(18.2827 -0.0424227 0)
(17.9925 -0.0423584 0)
(17.6965 -0.0429477 0)
(17.3983 -0.0444013 0)
(17.1006 -0.0458588 0)
(16.805 -0.0470626 0)
(16.5216 -0.0456592 0)
(16.2362 -0.0327784 0)
(18.7966 0.0363972 0)
(18.6748 0.0280281 0)
(18.536 0.0190052 0)
(18.3892 0.0107995 0)
(18.2332 0.00417278 0)
(18.0678 -0.000926189 0)
(17.8928 -0.00525182 0)
(17.7081 -0.00931779 0)
(17.523 -0.00967476 0)
(17.3315 -0.00568473 0)
(18.1393 -0.00159554 0)
(18.1491 -0.002307 0)
(18.1518 -0.00276867 0)
(18.1442 -0.00326016 0)
(18.1254 -0.00315027 0)
(18.0947 -0.0029355 0)
(18.0509 -0.00369491 0)
(17.9929 -0.00454652 0)
(17.9295 -0.00443167 0)
(17.8563 -0.00459019 0)
(17.6539 0.0114548 0)
(17.7583 0.0086871 0)
(17.8465 0.00617197 0)
(17.9119 0.00410478 0)
(17.9575 0.00229286 0)
(17.9852 0.000773331 0)
(17.9963 -0.00069032 0)
(17.9907 -0.00166182 0)
(17.978 -0.00215144 0)
(17.9543 -0.00207958 0)
(17.5465 0.00359441 0)
(17.6723 0.00235583 0)
(17.7793 0.00126541 0)
(17.8601 0.00033318 0)
(17.919 -0.000514824 0)
(17.9584 -0.00111425 0)
(17.9801 -0.00147011 0)
(17.9845 -0.0017615 0)
(17.9813 -0.00199213 0)
(17.9669 -0.0018126 0)
(17.5289 0.00101242 0)
(17.6582 0.000341312 0)
(17.7681 -0.000226064 0)
(17.8514 -0.000710135 0)
(17.9122 -0.00117158 0)
(17.9534 -0.00157848 0)
(17.9766 -0.00169421 0)
(17.9823 -0.00179289 0)
(17.9805 -0.00189829 0)
(17.9674 -0.00171177 0)
(17.5277 -0.000554075 0)
(17.6571 -0.000884073 0)
(17.7671 -0.00114017 0)
(17.8505 -0.00136598 0)
(17.9113 -0.00162127 0)
(17.9525 -0.00187003 0)
(17.9756 -0.00182914 0)
(17.9813 -0.00181099 0)
(17.9793 -0.00183414 0)
(17.9661 -0.00164985 0)
(17.541 -0.00312215 0)
(17.6676 -0.00290628 0)
(17.7751 -0.00266397 0)
(17.8563 -0.00247868 0)
(17.9152 -0.00241509 0)
(17.9546 -0.00237858 0)
(17.9761 -0.00206422 0)
(17.9801 -0.00184647 0)
(17.9765 -0.00174151 0)
(17.9617 -0.00155749 0)
(17.6384 -0.0108931 0)
(17.7449 -0.00906519 0)
(17.8346 -0.00737083 0)
(17.901 -0.00596543 0)
(17.947 -0.00493769 0)
(17.9748 -0.0040516 0)
(17.9854 -0.00289219 0)
(17.9791 -0.00203016 0)
(17.9654 -0.00162965 0)
(17.9405 -0.00142219 0)
(18.1041 0.00100907 0)
(18.1172 0.000982523 0)
(18.1226 0.00112358 0)
(18.1168 0.00104098 0)
(18.0988 0.000970721 0)
(18.068 0.00112363 0)
(18.0237 0.0010502 0)
(17.9645 0.00134201 0)
(17.8993 0.0010332 0)
(17.8236 0.00165151 0)
(18.759 -0.0359183 0)
(18.6368 -0.0289084 0)
(18.4974 -0.0214349 0)
(18.3497 -0.0142301 0)
(18.1924 -0.00809707 0)
(18.0249 -0.00263791 0)
(17.8471 0.00184433 0)
(17.6589 0.00599519 0)
(17.4697 0.00633988 0)
(17.2734 0.00262332 0)
(18.7783 0.0455733 0)
(18.5289 0.0424015 0)
(18.244 0.0406786 0)
(17.9495 0.0403802 0)
(17.6487 0.0404847 0)
(17.345 0.0411589 0)
(17.0413 0.042602 0)
(16.7395 0.0438721 0)
(16.4498 0.0424149 0)
(16.1576 0.0295524 0)
(17.7512 -0.0295085 0)
(17.371 -0.0187894 0)
(16.9586 -0.00964659 0)
(16.5529 -0.00175231 0)
(16.1587 0.00597036 0)
(15.7794 0.0128675 0)
(15.4175 0.018882 0)
(15.073 0.024586 0)
(14.7537 0.0212003 0)
(14.4167 0.00173565 0)
(15.4845 0.216649 0)
(15.0412 0.211513 0)
(14.5845 0.204405 0)
(14.1535 0.197339 0)
(13.7506 0.192118 0)
(13.376 0.187517 0)
(13.029 0.183543 0)
(12.7053 0.178708 0)
(12.4148 0.177683 0)
(12.0694 0.116502 0)
(12.0816 -0.149787 0)
(11.657 -0.14003 0)
(11.2288 -0.130637 0)
(10.8321 -0.121187 0)
(10.4719 -0.112519 0)
(10.1452 -0.105304 0)
(9.84916 -0.0994696 0)
(9.57617 -0.0919822 0)
(9.34744 -0.100081 0)
(8.96474 -0.0810532 0)
(8.00578 0.690076 0)
(7.62764 0.665775 0)
(7.24737 0.635332 0)
(6.89691 0.605088 0)
(6.5904 0.582789 0)
(6.31957 0.562894 0)
(6.08111 0.546007 0)
(5.85377 0.524255 0)
(5.72868 0.54235 0)
(5.2858 0.341317 0)
)
;

boundaryField
{
    walls
    {
        type            noSlip;
    }
    topInlet
    {
        type            fixedValue;
        value           nonuniform 0();
    }
    bottomInlet
    {
        type            fixedValue;
        value           nonuniform 0();
    }
    outlet
    {
        type            zeroGradient;
    }
    frontBack
    {
        type            empty;
    }
    procBoundary3to2
    {
        type            processor;
        value           nonuniform List<vector> 
20
(
(8.41802 -0.701435 0)
(12.5242 0.159636 0)
(15.9269 -0.218314 0)
(18.1132 0.0428947 0)
(19.0183 -0.0499871 0)
(18.9043 0.0448457 0)
(18.1269 -0.000789782 0)
(17.5366 0.0145346 0)
(17.4047 0.00496271 0)
(17.3831 0.00173518 0)
(17.3817 -0.000221651 0)
(17.3983 -0.00341497 0)
(17.5188 -0.0130055 0)
(18.088 0.0010794 0)
(18.8672 -0.0429482 0)
(18.9908 0.0497237 0)
(18.0918 -0.0408837 0)
(15.9071 0.220939 0)
(12.4995 -0.160015 0)
(8.38586 0.713429 0)
)
;
    }
}


// ************************************************************************* //
