/*--------------------------------*- C++ -*----------------------------------*\
| =========                 |                                                 |
| \\      /  F ield         | OpenFOAM: The Open Source CFD Toolbox           |
|  \\    /   O peration     | Version:  4.x                                   |
|   \\  /    A nd           | Web:      www.OpenFOAM.org                      |
|    \\/     M anipulation  |                                                 |
\*---------------------------------------------------------------------------*/
FoamFile
{
    version     2.0;
    format      ascii;
    class       surfaceScalarField;
    location    "0.45";
    object      phi;
}
// * * * * * * * * * * * * * * * * * * * * * * * * * * * * * * * * * * * * * //

dimensions      [0 3 -1 0 0 0 0];

internalField   nonuniform List<scalar> 
370
(
0.00113795
2.27739e-05
0.00110728
2.07028e-05
0.00107606
1.76169e-05
0.00104583
1.22782e-05
0.00101662
6.743e-06
0.000989156
3.60255e-07
0.000964156
-6.9511e-06
0.000941295
-1.44385e-05
0.000919975
-2.19074e-05
-2.89137e-05
0.0014358
3.80594e-05
0.0014192
3.73099e-05
0.00140195
3.48584e-05
0.00138356
3.06701e-05
0.00136461
2.56915e-05
0.00134455
2.04252e-05
0.00132261
1.49849e-05
0.00129879
9.38023e-06
0.001274
2.88679e-06
-3.42076e-06
0.0015345
4.3073e-05
0.00152917
4.26375e-05
0.00152329
4.07432e-05
0.00151676
3.71965e-05
0.00150972
3.27304e-05
0.00150214
2.80126e-05
0.00149389
2.32345e-05
0.00148486
1.84046e-05
0.00147427
1.34761e-05
8.73032e-06
0.00155048
4.45867e-05
0.00154862
4.44929e-05
0.00154733
4.2041e-05
0.00154647
3.80503e-05
0.00154572
3.34833e-05
0.00154489
2.88436e-05
0.00154382
2.43079e-05
0.00154223
1.99932e-05
0.00153978
1.59198e-05
1.23763e-05
0.00154905
4.62605e-05
0.00154786
4.56871e-05
0.00154784
4.20589e-05
0.00154863
3.72583e-05
0.0015496
3.25133e-05
0.00155048
2.79676e-05
0.00155107
2.37166e-05
0.00155116
1.99031e-05
0.00155056
1.65192e-05
1.36547e-05
0.0015393
4.9619e-05
0.00153681
4.81723e-05
0.00153628
4.25898e-05
0.00153655
3.69901e-05
0.00153682
3.22416e-05
0.00153683
2.7956e-05
0.00153634
2.421e-05
0.00153515
2.10958e-05
0.00153314
1.8528e-05
1.64967e-05
0.00164283
6.05923e-05
0.00163469
5.63139e-05
0.00163046
4.68157e-05
0.00162715
4.02963e-05
0.00162417
3.52268e-05
0.00162116
3.09677e-05
0.00161779
2.7578e-05
0.001614
2.48813e-05
0.00160988
2.26523e-05
2.07705e-05
0.000532715
5.4879e-05
0.000547533
4.14959e-05
0.000562665
3.1684e-05
0.00057721
2.5751e-05
0.000591108
2.13284e-05
0.000604025
1.80507e-05
0.000615967
1.56362e-05
0.000627045
1.38038e-05
0.000637341
1.23562e-05
1.11677e-05
0.000167752
2.64417e-05
0.000193534
1.57139e-05
0.000213426
1.17923e-05
0.000229698
9.47902e-06
0.000243214
7.81228e-06
0.00025462
6.64478e-06
0.000264434
5.8217e-06
0.000273013
5.22531e-06
0.000280597
4.77225e-06
4.39147e-06
6.81275e-05
4.88685e-07
8.32622e-05
5.79252e-07
9.4398e-05
6.56401e-07
0.000103166
7.11132e-07
0.000110217
7.6088e-07
0.000116051
8.10931e-07
0.000121006
8.67203e-07
0.000125293
9.38023e-07
0.000129053
1.01221e-06
1.0539e-06
6.80125e-05
-2.55486e-05
8.31627e-05
-1.4571e-05
9.43144e-05
-1.04953e-05
0.000103095
-8.06898e-06
0.000110155
-6.29963e-06
0.000115996
-5.03002e-06
0.000120956
-4.09298e-06
0.000125248
-3.35388e-06
0.000129012
-2.75183e-06
-2.28742e-06
0.000166566
-5.42633e-05
0.000192535
-4.05394e-05
0.000212581
-3.0542e-05
0.000228977
-2.44641e-05
0.000242588
-1.9911e-05
0.000254069
-1.65113e-05
0.000263944
-1.3968e-05
0.000272572
-1.19815e-05
0.000280198
-1.03779e-05
-9.10241e-06
0.000527869
-6.03802e-05
0.000543203
-5.58738e-05
0.000558776
-4.61152e-05
0.000573705
-3.93929e-05
0.000587937
-3.41429e-05
0.000601144
-2.97182e-05
0.000613337
-2.61616e-05
0.000624633
-2.32772e-05
0.000635125
-2.08706e-05
-1.88941e-05
0.00163871
-4.90995e-05
0.00163034
-4.75003e-05
0.00162595
-4.17208e-05
0.00162249
-3.59385e-05
0.00161938
-3.10279e-05
0.00161625
-2.65924e-05
0.00161278
-2.26878e-05
0.00160889
-1.93863e-05
0.00160467
-1.66531e-05
-1.4577e-05
0.00153869
-4.56288e-05
0.00153611
-4.49169e-05
0.0015355
-4.11091e-05
0.00153568
-3.61233e-05
0.00153587
-3.12148e-05
0.00153579
-2.65176e-05
0.0015352
-2.20961e-05
0.00153388
-1.80647e-05
0.00153172
-1.44878e-05
-1.15802e-05
0.00154889
-4.38923e-05
0.00154766
-4.36906e-05
0.00154762
-4.10657e-05
0.00154838
-3.68907e-05
0.00154934
-3.21725e-05
0.00155021
-2.7388e-05
0.00155078
-2.26696e-05
0.00155081
-1.80904e-05
0.00155014
-1.38195e-05
-1.02819e-05
0.00155032
-4.23827e-05
0.00154844
-4.18093e-05
0.00154713
-3.97519e-05
0.00154626
-3.603e-05
0.00154554
-3.14523e-05
0.00154477
-2.66128e-05
0.00154376
-2.16583e-05
0.00154217
-1.65037e-05
0.00153963
-1.12811e-05
-6.67418e-06
0.00153416
-3.73133e-05
0.00152878
-3.64233e-05
0.00152281
-3.37857e-05
0.00151621
-2.94254e-05
0.00150919
-2.44386e-05
0.00150163
-1.90445e-05
0.00149349
-1.35248e-05
0.00148441
-7.41975e-06
0.00147385
-7.19442e-07
5.73162e-06
0.00143434
-2.20143e-05
0.00141777
-1.98581e-05
0.00140056
-1.65744e-05
0.001382
-1.08616e-05
0.00136309
-5.53418e-06
0.00134286
1.18588e-06
0.00132066
8.67856e-06
0.00129683
1.64102e-05
0.00127213
2.39767e-05
3.09999e-05
0.00113566
0.00110497
0.00107379
0.00104379
0.00101466
0.000987552
0.000962942
0.000940493
0.000919494
)
;

boundaryField
{
    walls
    {
        type            calculated;
        value           nonuniform List<scalar> 
20
(
8.53215e-06
9.96269e-06
1.36077e-05
1.79548e-05
2.2465e-05
2.7102e-05
3.1951e-05
3.72996e-05
4.32274e-05
4.95829e-05
9.28204e-06
1.08262e-05
1.46063e-05
1.91418e-05
2.35902e-05
2.82985e-05
3.32885e-05
3.88596e-05
4.49759e-05
5.14782e-05
)
;
    }
    topInlet
    {
        type            calculated;
        value           nonuniform 0();
    }
    bottomInlet
    {
        type            calculated;
        value           nonuniform 0();
    }
    outlet
    {
        type            calculated;
        value           nonuniform 0();
    }
    frontBack
    {
        type            empty;
        value           nonuniform 0();
    }
    procBoundary1to0
    {
        type            processor;
        value           nonuniform List<scalar> 
20
(
-0.00116926
-0.00145109
-0.00153951
-0.00155199
-0.00155072
-0.00154266
-0.0016538
-0.000527001
-0.000139315
-4.21745e-05
-4.19753e-05
-0.000137852
-0.000521752
-0.00165
-0.00154216
-0.00155062
-0.00155183
-0.00153923
-0.00144964
-0.00116695
)
;
    }
    procBoundary1to2
    {
        type            processor;
        value           nonuniform List<scalar> 
20
(
0.000899306
0.00124851
0.00146212
0.00153614
0.00154928
0.0015303
0.00160561
0.000646943
0.000287373
0.000132391
0.000132353
0.000287013
0.000644917
0.00160035
0.00152872
0.00154884
0.00153602
0.00146144
0.00124686
0.000899016
)
;
    }
}


// ************************************************************************* //
