/*--------------------------------*- C++ -*----------------------------------*\
| =========                 |                                                 |
| \\      /  F ield         | OpenFOAM: The Open Source CFD Toolbox           |
|  \\    /   O peration     | Version:  4.x                                   |
|   \\  /    A nd           | Web:      www.OpenFOAM.org                      |
|    \\/     M anipulation  |                                                 |
\*---------------------------------------------------------------------------*/
FoamFile
{
    version     2.0;
    format      ascii;
    class       volVectorField;
    location    "0.45";
    object      U;
}
// * * * * * * * * * * * * * * * * * * * * * * * * * * * * * * * * * * * * * //

dimensions      [0 1 -1 0 0 0 0];

internalField   nonuniform List<vector> 
200
(
(14.7835 -0.418725 0)
(14.3739 -0.421362 0)
(13.9616 -0.452467 0)
(13.5654 -0.500506 0)
(13.1854 -0.559297 0)
(12.8182 -0.623354 0)
(12.4846 -0.680174 0)
(12.1809 -0.725534 0)
(11.9011 -0.761349 0)
(11.6358 -0.78535 0)
(18.4887 0.737195 0)
(18.272 0.657234 0)
(18.0488 0.583805 0)
(17.8217 0.520215 0)
(17.5838 0.464543 0)
(17.3376 0.415218 0)
(17.0675 0.368539 0)
(16.7737 0.32784 0)
(16.4598 0.297774 0)
(16.1361 0.273799 0)
(19.6776 0.316664 0)
(19.611 0.270814 0)
(19.5353 0.216095 0)
(19.455 0.149965 0)
(19.3686 0.0799985 0)
(19.2753 0.012905 0)
(19.174 -0.0482485 0)
(19.0633 -0.100531 0)
(18.94 -0.139218 0)
(18.7955 -0.166457 0)
(19.8597 0.599341 0)
(19.8339 0.541834 0)
(19.812 0.471466 0)
(19.7976 0.397041 0)
(19.7884 0.32939 0)
(19.7796 0.2744 0)
(19.7682 0.233076 0)
(19.7518 0.203709 0)
(19.7269 0.182107 0)
(19.6889 0.167595 0)
(19.8426 0.487956 0)
(19.8192 0.430815 0)
(19.8082 0.357659 0)
(19.813 0.283855 0)
(19.8268 0.218431 0)
(19.841 0.162396 0)
(19.8514 0.114227 0)
(19.8562 0.0720466 0)
(19.8533 0.0342965 0)
(19.8414 0.00140434 0)
(19.7333 0.573866 0)
(19.6838 0.498103 0)
(19.6594 0.402751 0)
(19.6593 0.316456 0)
(19.6677 0.246462 0)
(19.6727 0.190185 0)
(19.6704 0.146051 0)
(19.6597 0.113313 0)
(19.6393 0.0909201 0)
(19.6081 0.0781266 0)
(18.7938 0.629584 0)
(18.6521 0.541967 0)
(18.5732 0.42882 0)
(18.5384 0.337534 0)
(18.5126 0.267934 0)
(18.4819 0.213609 0)
(18.4456 0.17157 0)
(18.4045 0.139163 0)
(18.3592 0.113359 0)
(18.3109 0.0917147 0)
(13.0214 0.763608 0)
(13.2505 0.613377 0)
(13.5971 0.456012 0)
(13.9857 0.343972 0)
(14.3495 0.262419 0)
(14.6793 0.202255 0)
(14.9823 0.158276 0)
(15.2635 0.125758 0)
(15.5249 0.101072 0)
(15.768 0.0819856 0)
(8.29028 0.548008 0)
(9.66017 0.345463 0)
(10.8099 0.226414 0)
(11.7707 0.160009 0)
(12.5519 0.116651 0)
(13.1999 0.0875353 0)
(13.7527 0.067632 0)
(14.2333 0.053477 0)
(14.6564 0.0429811 0)
(15.0326 0.0349065 0)
(6.89163 0.191285 0)
(8.79928 0.0937982 0)
(10.2168 0.0604339 0)
(11.3322 0.0435779 0)
(12.2139 0.0326212 0)
(12.9323 0.0253036 0)
(13.5365 0.020297 0)
(14.0561 0.0167427 0)
(14.5094 0.0140748 0)
(14.9097 0.0118741 0)
(6.87767 -0.180559 0)
(8.787 -0.0819117 0)
(10.2066 -0.0483317 0)
(11.3236 -0.0317737 0)
(12.2064 -0.0212653 0)
(12.9257 -0.0144338 0)
(13.5306 -0.00986335 0)
(14.0507 -0.0066163 0)
(14.5046 -0.00427311 0)
(14.9052 -0.00272228 0)
(8.22321 -0.537576 0)
(9.60282 -0.332978 0)
(10.7617 -0.213828 0)
(11.7299 -0.147854 0)
(12.5167 -0.105025 0)
(13.1692 -0.0764566 0)
(13.7254 -0.0570331 0)
(14.2089 -0.0432178 0)
(14.6344 -0.0330785 0)
(15.0127 -0.025687 0)
(12.8982 -0.761433 0)
(13.1385 -0.608183 0)
(13.4964 -0.448729 0)
(13.8954 -0.335586 0)
(14.2681 -0.253477 0)
(14.6055 -0.193114 0)
(14.9151 -0.149099 0)
(15.202 -0.116561 0)
(15.4683 -0.0920176 0)
(15.7162 -0.0735374 0)
(18.7491 -0.62352 0)
(18.6035 -0.535453 0)
(18.5223 -0.421506 0)
(18.4858 -0.329642 0)
(18.4587 -0.259724 0)
(18.4267 -0.205256 0)
(18.389 -0.163075 0)
(18.3468 -0.130362 0)
(18.3003 -0.104158 0)
(18.2512 -0.0822237 0)
(19.7265 -0.569376 0)
(19.6754 -0.492348 0)
(19.6497 -0.39557 0)
(19.6487 -0.308236 0)
(19.6561 -0.237726 0)
(19.6599 -0.181328 0)
(19.6564 -0.137326 0)
(19.6443 -0.104989 0)
(19.6221 -0.0837122 0)
(19.5889 -0.0727896 0)
(19.841 -0.476725 0)
(19.817 -0.419599 0)
(19.8054 -0.346064 0)
(19.8099 -0.27189 0)
(19.8235 -0.206291 0)
(19.8376 -0.149993 0)
(19.8479 -0.101184 0)
(19.8523 -0.0578788 0)
(19.8485 -0.0193178 0)
(19.8359 0.0124836 0)
(19.8575 -0.595119 0)
(19.8316 -0.537046 0)
(19.8095 -0.466093 0)
(19.795 -0.391497 0)
(19.7858 -0.324501 0)
(19.7776 -0.270277 0)
(19.767 -0.22953 0)
(19.7512 -0.19958 0)
(19.7259 -0.17776 0)
(19.6873 -0.161376 0)
(19.6738 -0.30247 0)
(19.6064 -0.255302 0)
(19.5298 -0.198841 0)
(19.4485 -0.13081 0)
(19.3615 -0.060817 0)
(19.2684 0.00599819 0)
(19.1679 0.0666833 0)
(19.0581 0.116637 0)
(18.9352 0.153377 0)
(18.7882 0.180206 0)
(18.4701 -0.740669 0)
(18.2535 -0.661688 0)
(18.0306 -0.589054 0)
(17.8034 -0.526038 0)
(17.5645 -0.468634 0)
(17.3168 -0.416763 0)
(17.0441 -0.367914 0)
(16.7484 -0.32713 0)
(16.4341 -0.296375 0)
(16.1139 -0.27205 0)
(14.754 0.449913 0)
(14.3441 0.452695 0)
(13.9321 0.483562 0)
(13.538 0.5316 0)
(13.159 0.591521 0)
(12.7955 0.655253 0)
(12.4666 0.710368 0)
(12.1683 0.755287 0)
(11.8933 0.789791 0)
(11.6314 0.811755 0)
)
;

boundaryField
{
    walls
    {
        type            noSlip;
    }
    topInlet
    {
        type            fixedValue;
        value           nonuniform 0();
    }
    bottomInlet
    {
        type            fixedValue;
        value           nonuniform 0();
    }
    outlet
    {
        type            zeroGradient;
    }
    frontBack
    {
        type            empty;
    }
    procBoundary1to0
    {
        type            processor;
        value           nonuniform List<vector> 
20
(
(15.0929 -0.43815 1.46116e-24)
(18.6771 0.81635 -6.10001e-25)
(19.722 0.356722 5.06302e-27)
(19.8832 0.639138 1.94692e-27)
(19.8651 0.521842 0)
(19.7856 0.606285 2.09471e-25)
(18.9594 0.621272 1.43003e-24)
(12.8621 0.686522 1.21157e-24)
(6.02293 0.483211 -5.72185e-29)
(1.73174 0.175398 -4.26226e-29)
(1.69657 -0.167603 4.25095e-29)
(5.93184 -0.474555 5.53838e-29)
(12.7268 -0.684172 1.24044e-24)
(18.9194 -0.614224 1.47028e-24)
(19.7803 -0.602189 2.14784e-25)
(19.8636 -0.510033 0)
(19.8817 -0.635467 -2.34724e-27)
(19.7189 -0.343654 -5.29221e-27)
(18.6585 -0.818656 -6.50034e-25)
(15.0647 0.46911 2.94674e-24)
)
;
    }
    procBoundary1to2
    {
        type            processor;
        value           nonuniform List<vector> 
20
(
(11.3712 -0.797942 0)
(15.8077 0.255423 0)
(18.6247 -0.188467 0)
(19.6363 0.154108 0)
(19.8208 -0.0228276 0)
(19.5667 0.0732033 0)
(18.2625 0.0729762 0)
(15.9955 0.0673765 0)
(15.3709 0.0286871 0)
(15.2674 0.0100772 0)
(15.2634 -0.00169152 0)
(15.3529 -0.0202598 0)
(15.9482 -0.0597451 0)
(18.2025 -0.063138 0)
(19.5454 -0.0694201 0)
(19.815 0.0352787 0)
(19.6343 -0.146495 0)
(18.6148 0.200786 0)
(15.7888 -0.253124 0)
(11.368 0.823409 0)
)
;
    }
}


// ************************************************************************* //
