/*--------------------------------*- C++ -*----------------------------------*\
| =========                 |                                                 |
| \\      /  F ield         | OpenFOAM: The Open Source CFD Toolbox           |
|  \\    /   O peration     | Version:  4.x                                   |
|   \\  /    A nd           | Web:      www.OpenFOAM.org                      |
|    \\/     M anipulation  |                                                 |
\*---------------------------------------------------------------------------*/
FoamFile
{
    version     2.0;
    format      ascii;
    class       volScalarField;
    location    "0.3";
    object      k;
}
// * * * * * * * * * * * * * * * * * * * * * * * * * * * * * * * * * * * * * //

dimensions      [0 2 -2 0 0 0 0];

internalField   nonuniform List<scalar> 
200
(
14.6024
13.9217
13.2491
12.6328
12.0878
11.6083
11.1851
10.786
10.5382
9.90873
5.01758
4.90926
4.80299
4.70652
4.61565
4.53049
4.45101
4.37937
4.30487
4.30946
2.14978
2.23215
2.31619
2.39541
2.46746
2.5319
2.5893
2.64244
2.68618
2.81087
0.783458
0.871159
0.972973
1.07992
1.18986
1.30058
1.4103
1.51855
1.62447
1.7684
0.260332
0.290746
0.332775
0.384149
0.445222
0.515977
0.596096
0.685069
0.782877
0.90203
0.119831
0.121812
0.128588
0.140412
0.157872
0.181624
0.21253
0.251531
0.299913
0.361521
0.0713495
0.0685924
0.066754
0.0664593
0.0680737
0.0720377
0.0787749
0.0888391
0.10298
0.122481
0.0494587
0.0486844
0.0479111
0.0474873
0.0476888
0.0488092
0.0511822
0.0551676
0.061223
0.0700016
0.0444647
0.0443456
0.0440415
0.0438339
0.0439939
0.0448036
0.0465705
0.0496339
0.0544079
0.0614475
0.0436307
0.0436282
0.0434136
0.0432576
0.043432
0.0442167
0.0459164
0.0488707
0.0534912
0.0603223
0.0435624
0.0435709
0.0433684
0.0432251
0.0434134
0.0442129
0.0459289
0.0489036
0.0535526
0.0604234
0.04417
0.044098
0.0438453
0.0436908
0.0439086
0.0447791
0.0466119
0.0497584
0.0546478
0.0618487
0.0486552
0.0480053
0.0473679
0.0470841
0.0474356
0.0487126
0.051254
0.0554523
0.0618059
0.0710034
0.0697785
0.0672268
0.0656378
0.0656198
0.0675374
0.0717837
0.0789211
0.0895414
0.104456
0.125054
0.118707
0.120808
0.127716
0.139724
0.157504
0.181892
0.213719
0.254052
0.304318
0.3686
0.259343
0.289405
0.331147
0.38249
0.443992
0.515849
0.597738
0.689209
0.790256
0.913825
0.779681
0.866114
0.967267
1.07446
1.18571
1.29885
1.41168
1.52354
1.63339
1.78263
2.14742
2.22918
2.3135
2.39376
2.46753
2.53437
2.59422
2.64974
2.69581
2.82415
5.06206
4.94931
4.83817
4.73691
4.6416
4.55264
4.46963
4.39478
4.31817
4.31966
14.8192
14.1051
13.3976
12.7487
12.1747
11.6682
11.2225
10.805
10.5442
9.89227
)
;

boundaryField
{
    walls
    {
        type            kqRWallFunction;
        value           nonuniform List<scalar> 
20
(
14.6024
13.9217
13.2491
12.6328
12.0878
11.6083
11.1851
10.786
10.5382
9.90873
14.8192
14.1051
13.3976
12.7487
12.1747
11.6682
11.2225
10.805
10.5442
9.89227
)
;
    }
    topInlet
    {
        type            fixedValue;
        value           nonuniform 0();
    }
    bottomInlet
    {
        type            fixedValue;
        value           nonuniform 0();
    }
    outlet
    {
        type            zeroGradient;
    }
    frontBack
    {
        type            empty;
    }
    procBoundary3to2
    {
        type            processor;
        value           nonuniform List<scalar> 
20
(
15.2922
5.12348
2.06933
0.709705
0.239443
0.121306
0.0744004
0.0500028
0.0442456
0.0432796
0.0432015
0.0439088
0.0490892
0.07267
0.120044
0.238763
0.707468
2.06841
5.17193
15.5399
)
;
    }
}


// ************************************************************************* //
