/*--------------------------------*- C++ -*----------------------------------*\
| =========                 |                                                 |
| \\      /  F ield         | OpenFOAM: The Open Source CFD Toolbox           |
|  \\    /   O peration     | Version:  4.x                                   |
|   \\  /    A nd           | Web:      www.OpenFOAM.org                      |
|    \\/     M anipulation  |                                                 |
\*---------------------------------------------------------------------------*/
FoamFile
{
    version     2.0;
    format      ascii;
    class       surfaceScalarField;
    location    "0.05";
    object      alphaPhi;
}
// * * * * * * * * * * * * * * * * * * * * * * * * * * * * * * * * * * * * * //

dimensions      [0 3 -1 0 0 0 0];

internalField   nonuniform List<scalar> 
370
(
4.86524e-18
-1.83556e-19
2.19774e-17
-2.60709e-18
1.03647e-16
-4.38784e-17
1.40564e-15
-1.02205e-15
6.83647e-15
-7.00458e-15
1.11635e-14
-6.5874e-15
1.01555e-14
-4.16126e-15
8.35199e-15
-1.26247e-15
2.79704e-15
-9.1781e-16
-8.07689e-17
2.45886e-18
-1.3142e-19
1.64599e-17
-3.37299e-18
7.74523e-17
-5.07445e-17
1.28832e-15
-7.63705e-16
3.70982e-15
-6.19956e-15
2.80697e-15
-1.71955e-15
3.78697e-15
-5.91866e-16
2.08239e-15
-1.91163e-16
4.81881e-16
-5.33579e-17
-3.2048e-18
1.9336e-18
-1.34681e-19
1.6751e-17
-4.26275e-18
8.05003e-17
-6.61206e-17
8.93183e-16
-5.5103e-16
3.74527e-15
-1.00241e-14
6.43279e-16
-3.22092e-15
4.74255e-16
-1.40212e-17
2.51303e-16
-1.29043e-17
4.54898e-17
-9.4318e-19
-1.6333e-20
2.30324e-18
-1.73055e-19
2.19669e-17
-6.24969e-18
2.12492e-16
-3.08248e-16
4.19536e-15
-4.59377e-15
4.93089e-14
-5.73316e-14
2.49655e-15
-5.65118e-15
6.72171e-18
-3.86978e-17
1.23427e-17
-3.01059e-19
9.95678e-19
2.12434e-19
6.1969e-21
3.86709e-18
-2.46834e-19
4.31142e-17
-1.63057e-17
1.3323e-15
-1.58042e-15
7.81636e-14
-8.05605e-14
6.7372e-13
-7.42266e-13
2.9663e-14
7.01114e-16
9.7181e-18
-1.09585e-15
2.01597e-19
-8.89882e-20
1.17514e-20
1.17486e-20
1.29362e-22
8.44024e-18
-3.73116e-20
3.99426e-16
-4.06472e-16
6.46397e-14
-6.67516e-14
2.14197e-12
-2.12351e-12
1.11654e-11
-1.19579e-11
4.23546e-13
2.45324e-16
1.31404e-16
-5.49835e-14
6.07669e-20
-4.92496e-19
8.09376e-22
1.01389e-21
5.79984e-24
7.45215e-18
2.39909e-21
2.64343e-14
-2.68197e-14
4.48351e-12
-4.5445e-12
9.01594e-11
-9.02765e-11
3.03382e-10
-3.15547e-10
9.0566e-12
-6.27143e-12
2.55829e-15
-4.01329e-12
5.24077e-19
-1.5685e-16
2.03472e-21
1.11061e-21
3.79047e-24
-3.02505e-19
2.903e-18
7.36049e-12
-7.76459e-12
6.04099e-10
-6.04402e-10
5.46586e-09
-5.32694e-09
8.59034e-09
-7.08536e-09
5.11235e-11
6.85996e-09
2.55824e-14
-9.41232e-11
7.19676e-17
-7.42728e-15
2.52941e-19
1.59338e-19
3.95123e-22
-4.74074e-16
8.13384e-18
2.30904e-09
-2.31688e-09
5.48215e-08
-5.29741e-08
1.33136e-07
-8.17535e-08
2.81455e-07
-9.90127e-08
6.00424e-09
-9.45641e-08
6.17167e-14
-3.64396e-10
2.89436e-17
-6.88024e-14
3.62806e-18
2.91505e-18
1.24263e-20
-2.36135e-15
-2.6853e-18
9.61288e-07
-4.68205e-07
8.2342e-06
-1.66095e-06
1.14298e-05
-8.45398e-07
2.67216e-06
1.16978e-06
3.04511e-11
1.15434e-09
7.40852e-14
-3.35771e-10
2.79442e-17
-4.07708e-14
6.46629e-18
7.50818e-18
4.15542e-20
0.000133444
8.58997e-07
0.00012782
4.9667e-06
0.000106289
1.4801e-05
4.09783e-05
3.09721e-05
1.38012e-06
1.64542e-05
1.85676e-10
2.93048e-09
2.55519e-14
-1.51169e-10
5.72974e-18
-3.59077e-14
3.90586e-18
2.24768e-18
2.11406e-20
0.000328044
2.34548e-06
0.000315523
1.74872e-05
0.000271402
5.17865e-05
0.000111968
0.00010884
2.45251e-06
5.70007e-05
2.81878e-10
2.99527e-07
5.78908e-16
1.30924e-10
2.48124e-17
-3.35164e-14
6.70872e-18
-2.71463e-18
7.33216e-21
0.000711002
5.91669e-06
0.000684163
4.43268e-05
0.000602627
0.000133322
0.000275686
0.000274463
6.64582e-07
0.000147697
6.66042e-10
9.4828e-07
-3.00746e-14
8.55914e-10
8.55966e-17
-6.39185e-14
1.80153e-17
-5.60577e-17
-5.03734e-20
0.00157103
2.09141e-05
0.00150775
0.000107609
0.00133252
0.000308552
0.000696182
0.000618102
1.87523e-06
0.000373204
4.81568e-09
2.76848e-06
-6.25806e-13
5.86674e-09
2.86858e-16
-6.65818e-13
1.65799e-16
-1.0053e-15
-1.50547e-18
0.00144678
4.26055e-05
0.00138341
0.000170977
0.00122559
0.000466371
0.000715343
0.000916086
1.75097e-06
0.000622016
1.52e-08
4.43035e-06
8.90309e-13
2.09818e-08
-8.63456e-15
6.46724e-14
5.21457e-17
-9.7524e-15
-2.96648e-17
0.00145413
6.58303e-05
0.0013957
0.000229411
0.00124907
0.000613003
0.000792658
0.00118313
1.12179e-05
0.000921509
5.26777e-08
8.38041e-06
6.73514e-11
7.01419e-08
-3.96711e-14
6.74164e-11
5.44687e-16
-5.49397e-14
-4.17976e-16
0.00139042
8.26083e-05
0.0013552
0.000264631
0.00124323
0.000724978
0.000978662
0.00144769
3.4936e-05
0.00126138
1.41618e-07
1.52585e-05
1.10132e-09
2.0587e-07
8.00419e-12
1.11971e-09
2.24311e-14
7.74455e-12
1.38226e-14
0.0012341
8.57362e-05
0.00124537
0.000253367
0.00120354
0.000766806
0.00102848
0.00162276
6.32162e-05
0.00161394
4.9529e-07
5.51845e-05
9.79517e-09
6.80006e-07
2.47448e-10
1.0436e-08
2.24689e-12
2.50006e-10
1.95463e-12
0.000973388
7.50632e-05
0.00105646
0.000170298
0.00115832
0.000664945
0.0011462
0.00162707
0.000299214
0.00181208
1.93695e-05
0.000334398
9.52194e-07
1.90702e-05
3.28773e-08
9.28717e-07
6.63043e-10
3.24336e-08
6.57845e-10
0.00062063
0.000775642
0.00117598
0.00163796
0.00142271
0.000612776
0.000257557
8.20085e-05
2.36215e-06
)
;

boundaryField
{
    walls
    {
        type            calculated;
        value           nonuniform List<scalar> 
20
(
6.10713e-19
3.54708e-19
2.2625e-17
7.36147e-16
5.11591e-15
9.72687e-15
7.0904e-15
5.21491e-15
4.51391e-15
7.36551e-16
8.06333e-05
1.52861e-05
0.000264607
0.00116508
0.001809
0.000932079
0.000286687
0.000109799
3.58999e-05
4.66446e-07
)
;
    }
    topInlet
    {
        type            calculated;
        value           nonuniform 0();
    }
    bottomInlet
    {
        type            calculated;
        value           nonuniform 0();
    }
    outlet
    {
        type            calculated;
        value           nonuniform List<scalar> 
20
(
7.12008e-16
7.09337e-17
3.22849e-18
2.01885e-20
3.28411e-22
1.23512e-23
1.915e-23
1.33255e-21
2.58554e-20
4.79984e-20
3.06746e-20
5.11533e-20
1.18494e-19
1.14441e-18
5.46904e-18
1.11549e-16
1.79204e-15
1.20894e-13
4.21209e-12
4.09614e-07
)
;
    }
    frontBack
    {
        type            empty;
        value           nonuniform 0();
    }
    procBoundary3to2
    {
        type            processor;
        value           nonuniform List<scalar> 
20
(
-9.71009e-19
-2.72534e-19
-1.38524e-19
-1.27333e-19
-1.81908e-19
-3.20927e-19
4.6069e-20
2.99216e-18
1.94527e-16
8.82773e-16
-0.000134348
-0.00032953
-0.000714574
-0.00158603
-0.00146847
-0.00147736
-0.0014072
-0.00123723
-0.000962715
-0.0006262
)
;
    }
}


// ************************************************************************* //
