/*--------------------------------*- C++ -*----------------------------------*\
| =========                 |                                                 |
| \\      /  F ield         | OpenFOAM: The Open Source CFD Toolbox           |
|  \\    /   O peration     | Version:  4.x                                   |
|   \\  /    A nd           | Web:      www.OpenFOAM.org                      |
|    \\/     M anipulation  |                                                 |
\*---------------------------------------------------------------------------*/
FoamFile
{
    version     2.0;
    format      ascii;
    class       volScalarField;
    location    "0.05";
    object      alpha.upper;
}
// * * * * * * * * * * * * * * * * * * * * * * * * * * * * * * * * * * * * * //

dimensions      [0 0 0 0 0 0 0];

internalField   nonuniform List<scalar> 
200
(
7.80426e-15
2.82246e-14
8.78439e-14
6.27081e-13
2.45625e-12
5.31296e-12
6.75748e-12
6.72171e-12
4.66635e-12
1.16713e-12
2.51947e-15
1.5535e-14
6.66042e-14
6.09016e-13
3.16927e-12
2.6389e-12
3.89091e-12
2.58804e-12
9.35153e-13
2.35934e-13
1.56399e-15
1.34162e-14
6.65821e-14
1.95313e-13
1.71381e-12
6.15462e-13
8.40816e-13
5.76612e-13
1.89695e-13
2.34606e-14
1.65369e-15
1.61685e-14
7.49856e-14
1.33654e-13
2.53078e-12
4.67044e-14
1.62896e-14
6.34697e-14
1.10626e-14
4.74627e-16
2.65436e-15
2.6987e-14
6.42275e-14
4.86235e-13
3.92658e-11
5.50528e-14
4.37958e-15
3.14028e-15
2.81775e-16
8.35941e-18
5.82141e-15
2.79988e-14
-2.82504e-13
2.14053e-11
5.73929e-10
1.49328e-12
5.64592e-15
2.26607e-15
2.85706e-17
4.1437e-19
1.56296e-15
3.57254e-14
-8.89505e-12
1.10153e-09
1.0877e-08
1.55375e-10
3.50804e-14
7.16662e-15
6.72951e-17
5.18633e-19
-4.25093e-16
-2.62936e-10
3.89594e-10
4.49445e-08
3.04983e-07
4.17345e-08
2.82705e-08
5.37643e-14
1.93538e-14
8.47819e-17
-1.44466e-12
-6.04891e-11
2.69117e-07
4.17692e-06
0.00269904
0.000924024
4.91375e-06
4.30872e-13
1.23907e-13
3.63703e-15
-1.55224e-11
0.0032134
0.0376659
0.12582
0.0891714
0.0080045
2.38965e-09
1.48083e-12
2.74519e-13
1.46466e-14
0.878355
0.876125
0.851301
0.609428
0.145655
0.00261782
1.31446e-09
9.98982e-13
2.74975e-13
9.36213e-15
1
1
0.991737
0.755682
0.184964
0.00117502
1.26593e-11
-5.20046e-13
1.28505e-13
7.20135e-15
1
1
1
0.83821
0.214407
8.38009e-06
-8.40155e-09
3.11399e-13
6.4705e-14
7.55345e-15
1
1
1
0.91187
0.255003
1.40056e-05
-2.79754e-08
-5.80133e-13
4.98187e-14
3.11436e-14
1
1
1
0.96582
0.299423
2.6831e-05
1.87051e-08
4.61076e-11
1.41462e-13
6.71267e-14
1
1
1
0.990814
0.3406
0.000492657
4.88174e-08
1.76491e-11
1.5846e-12
2.00748e-13
1
1
1
1
0.410195
0.00241675
1.4498e-06
1.16817e-08
4.57533e-11
2.30575e-12
1
1
1
1
0.458119
0.00161676
5.38889e-06
9.80599e-08
1.00344e-09
4.66259e-11
1
1
1
1
0.52293
0.000537338
2.18899e-05
7.30176e-07
1.60631e-08
1.00342e-09
1
1
1
1
0.886711
0.517621
0.275039
0.139787
0.0346817
0.000161005
)
;

boundaryField
{
    walls
    {
        type            zeroGradient;
    }
    topInlet
    {
        type            fixedValue;
        value           nonuniform 0();
    }
    bottomInlet
    {
        type            fixedValue;
        value           nonuniform 0();
    }
    outlet
    {
        type            inletOutlet;
        inletValue      uniform 0;
        value           nonuniform List<scalar> 
20
(
1.16713e-12
2.35934e-13
2.34606e-14
4.74627e-16
8.35941e-18
4.1437e-19
5.18633e-19
8.47819e-17
3.63703e-15
1.46466e-14
9.36213e-15
7.20135e-15
7.55345e-15
3.11436e-14
6.71267e-14
2.00748e-13
2.30575e-12
4.66259e-11
1.00342e-09
0.000161005
)
;
    }
    frontBack
    {
        type            empty;
    }
    procBoundary3to2
    {
        type            processor;
        value           nonuniform List<scalar> 
20
(
1.54421e-15
2.82485e-16
1.11811e-16
9.03692e-17
1.22938e-16
2.18108e-16
-2.89868e-17
-4.18335e-15
-5.90113e-13
-5.77646e-12
0.880588
1
1
1
1
1
1
1
1
1
)
;
    }
}


// ************************************************************************* //
