/*--------------------------------*- C++ -*----------------------------------*\
| =========                 |                                                 |
| \\      /  F ield         | OpenFOAM: The Open Source CFD Toolbox           |
|  \\    /   O peration     | Version:  4.x                                   |
|   \\  /    A nd           | Web:      www.OpenFOAM.org                      |
|    \\/     M anipulation  |                                                 |
\*---------------------------------------------------------------------------*/
FoamFile
{
    version     2.0;
    format      ascii;
    class       volScalarField;
    location    "0.05";
    object      epsilon;
}
// * * * * * * * * * * * * * * * * * * * * * * * * * * * * * * * * * * * * * //

dimensions      [0 2 -3 0 0 0 0];

internalField   nonuniform List<scalar> 
200
(
13722.7
14818.3
22077.3
34584.2
47415.7
58532.2
58083.4
46572.5
33672.7
13368.1
2702.87
2522.97
2474.7
3009.71
4832.08
8709.73
9864.9
7994.88
5781.66
2080.64
681.974
536.842
356.73
288.791
432.357
1219.55
2195.93
2072.98
1206.97
295.668
158.012
122.393
75.7228
53.9918
80.4156
276.21
641.464
561.315
208.116
40.4634
36.074
30.0773
21.9912
21.5388
37.4833
99.7275
188.797
113.773
33.542
7.92025
12.1971
10.7517
10.1198
15.5099
28.6116
44.4138
48.3225
21.9798
7.78646
2.77545
6.41541
5.78695
6.87561
14.3311
25.5389
21.5565
12.1284
5.52687
2.83113
1.83253
4.22547
4.02768
5.67551
13.8648
23.6148
14.3148
5.95331
3.12229
2.07782
1.71439
3.73392
3.64673
5.43146
13.658
22.3394
12.4881
4.91309
2.73579
1.95354
1.69974
3.65307
3.58905
5.42394
13.6753
21.9011
12.0383
4.72383
2.66667
1.92841
1.6983
3.64729
3.58729
5.43878
13.7017
21.7867
11.9436
4.69718
2.65685
1.92237
1.69823
3.70823
3.63031
5.43654
13.6064
21.879
12.2127
4.83445
2.70486
1.93027
1.69765
4.15501
3.97078
5.60886
13.5558
22.636
13.7994
5.78416
3.05135
2.01513
1.70468
6.29502
5.68116
6.72584
13.8266
24.2584
20.6577
11.5786
5.26207
2.62224
1.79073
12.2357
10.7702
10.0614
15.119
27.451
43.0746
45.9178
19.9257
6.76122
2.54112
36.3883
30.3281
22.1322
21.3733
36.4963
97.6955
181.358
101.353
28.4538
6.76579
158.993
123.316
76.6149
54.6421
79.8766
271.465
621.404
517.66
177.265
33.7099
688.108
543.156
364.155
296.978
437.043
1199.64
2120.26
1975.16
1078.88
245.659
2751.58
2573.3
2543.53
3105.39
4915.38
8614.24
9563.02
7732
5436.99
1800.02
14040.9
15166.5
22665.6
35556.7
48372.9
58741.7
57274.3
45384.2
31899.3
11711.3
)
;

boundaryField
{
    walls
    {
        Cmu             0.09;
        kappa           0.41;
        E               9.8;
        type            epsilonWallFunction;
        value           nonuniform List<scalar> 
20
(
13722.7
14818.3
22077.3
34584.2
47415.7
58532.2
58083.4
46572.5
33672.7
13368.1
14040.9
15166.5
22665.6
35556.7
48372.9
58741.7
57274.3
45384.2
31899.3
11711.3
)
;
    }
    topInlet
    {
        type            fixedValue;
        value           nonuniform 0();
    }
    bottomInlet
    {
        type            fixedValue;
        value           nonuniform 0();
    }
    outlet
    {
        type            zeroGradient;
    }
    frontBack
    {
        type            empty;
    }
    procBoundary3to2
    {
        type            processor;
        value           nonuniform List<scalar> 
20
(
15129.1
2829.61
705.863
160.904
36.5028
13.0224
7.27186
4.71108
4.10189
3.99985
3.992
4.06818
4.62113
7.1266
13.059
36.8639
162.155
713.1
2885.47
15497.4
)
;
    }
}


// ************************************************************************* //
