/*--------------------------------*- C++ -*----------------------------------*\
| =========                 |                                                 |
| \\      /  F ield         | OpenFOAM: The Open Source CFD Toolbox           |
|  \\    /   O peration     | Version:  4.x                                   |
|   \\  /    A nd           | Web:      www.OpenFOAM.org                      |
|    \\/     M anipulation  |                                                 |
\*---------------------------------------------------------------------------*/
FoamFile
{
    version     2.0;
    format      ascii;
    class       volScalarField;
    location    "0.05";
    object      k;
}
// * * * * * * * * * * * * * * * * * * * * * * * * * * * * * * * * * * * * * //

dimensions      [0 2 -2 0 0 0 0];

internalField   nonuniform List<scalar> 
200
(
14.192
14.855
19.2949
26.0734
32.2532
37.2197
37.223
32.2133
26.0427
14.2607
5.04909
4.53863
3.85565
3.91754
5.60894
9.94172
11.9353
10.5194
8.22378
3.70478
2.04279
1.60112
0.99307
0.690831
0.926498
2.56982
4.74778
4.6701
2.81001
0.805556
0.700825
0.55817
0.358639
0.277578
0.406459
1.08952
2.22056
1.88969
0.714546
0.181972
0.235252
0.204437
0.167651
0.200179
0.330759
0.616817
0.933756
0.537191
0.184155
0.103947
0.11462
0.105746
0.112087
0.186378
0.311554
0.374408
0.333832
0.168476
0.110796
0.102685
0.0704961
0.069306
0.0909798
0.185058
0.30267
0.241352
0.145501
0.111685
0.107899
0.106833
0.0492615
0.0520095
0.0789844
0.180717
0.292
0.194616
0.116919
0.108457
0.109026
0.108444
0.0444118
0.0480225
0.0757229
0.177082
0.282331
0.182375
0.112641
0.108362
0.109413
0.108786
0.0435996
0.0473451
0.0751186
0.175968
0.278749
0.179552
0.111942
0.108387
0.109494
0.108854
0.0435305
0.0472815
0.0750377
0.175659
0.277757
0.179032
0.111858
0.108409
0.10952
0.108866
0.0441129
0.0477291
0.0752525
0.175453
0.278351
0.180526
0.112305
0.108418
0.10949
0.108811
0.0484443
0.0512055
0.0777068
0.176792
0.283525
0.190369
0.11593
0.108536
0.109196
0.108481
0.0688751
0.067714
0.0887325
0.179478
0.291228
0.233327
0.141665
0.111221
0.108164
0.106907
0.113433
0.104493
0.110125
0.181436
0.300878
0.363473
0.317876
0.158371
0.109027
0.102719
0.234306
0.203401
0.166066
0.196038
0.321276
0.603766
0.896433
0.480795
0.165479
0.102243
0.697424
0.555555
0.356999
0.274443
0.398237
1.07078
2.15529
1.74421
0.614248
0.162645
2.03899
1.60062
0.997873
0.696703
0.924065
2.52591
4.60382
4.45984
2.52817
0.686093
5.0885
4.58187
3.91772
3.99567
5.65945
9.81746
11.6124
10.2298
7.82075
3.30547
14.4102
15.0857
19.6341
26.5602
32.6944
37.321
36.8875
31.6681
25.1433
13.0844
)
;

boundaryField
{
    walls
    {
        type            kqRWallFunction;
        value           nonuniform List<scalar> 
20
(
14.192
14.855
19.2949
26.0734
32.2532
37.2197
37.223
32.2133
26.0427
14.2607
14.4102
15.0857
19.6341
26.5602
32.6944
37.321
36.8875
31.6681
25.1433
13.0844
)
;
    }
    topInlet
    {
        type            fixedValue;
        value           nonuniform 0();
    }
    bottomInlet
    {
        type            fixedValue;
        value           nonuniform 0();
    }
    outlet
    {
        type            zeroGradient;
    }
    frontBack
    {
        type            empty;
    }
    procBoundary3to2
    {
        type            processor;
        value           nonuniform List<scalar> 
20
(
15.1613
5.16511
2.08071
0.701648
0.235926
0.120403
0.0740917
0.0498064
0.0440899
0.0431307
0.0430523
0.0437526
0.0488913
0.0723522
0.119152
0.235196
0.699281
2.07887
5.21189
15.4062
)
;
    }
}


// ************************************************************************* //
