/*--------------------------------*- C++ -*----------------------------------*\
| =========                 |                                                 |
| \\      /  F ield         | OpenFOAM: The Open Source CFD Toolbox           |
|  \\    /   O peration     | Version:  4.x                                   |
|   \\  /    A nd           | Web:      www.OpenFOAM.org                      |
|    \\/     M anipulation  |                                                 |
\*---------------------------------------------------------------------------*/
FoamFile
{
    version     2.0;
    format      ascii;
    class       volScalarField;
    location    "0.05";
    object      nut;
}
// * * * * * * * * * * * * * * * * * * * * * * * * * * * * * * * * * * * * * //

dimensions      [0 2 -1 0 0 0 0];

internalField   nonuniform List<scalar> 
200
(
0.00132097
0.00134026
0.00151769
0.00176913
0.00197455
0.00213007
0.00214691
0.00200531
0.00181274
0.00136916
0.000848877
0.000734821
0.000540647
0.000458929
0.000585962
0.00102132
0.00129962
0.0012457
0.00105277
0.000593704
0.000550706
0.000429778
0.000248807
0.000148731
0.000178686
0.00048736
0.000923858
0.000946891
0.000588795
0.000197528
0.00027975
0.000229096
0.000152873
0.000128435
0.0001849
0.000386785
0.000691826
0.000572553
0.000220799
7.36528e-05
0.000138075
0.000125062
0.000115029
0.00016744
0.000262681
0.000343353
0.000415636
0.000228276
9.09951e-05
0.000122779
9.69401e-05
9.36041e-05
0.000111733
0.000201568
0.000305329
0.000284063
0.000207562
0.000116223
0.000141891
0.00034192
6.97187e-05
7.47023e-05
0.000108348
0.000215068
0.000322834
0.000243201
0.000157097
0.000203119
0.000370098
0.000560533
5.16873e-05
6.04439e-05
9.89283e-05
0.000211996
0.000324955
0.000238131
0.000206659
0.000339064
0.000514867
0.000617366
4.75417e-05
5.69152e-05
9.50124e-05
0.000206637
0.000321135
0.000239704
0.000232424
0.000386288
0.000551517
0.000626619
4.68326e-05
5.621e-05
9.36316e-05
0.000203786
0.000319304
0.000241022
0.000238744
0.000396485
0.000559531
0.000627933
4.67585e-05
5.60864e-05
9.31751e-05
0.000202679
0.000318699
0.000241528
0.000239742
0.000398112
0.000561552
0.000628106
4.72287e-05
5.64761e-05
9.37481e-05
0.00020362
0.000318713
0.000240165
0.000234797
0.000391112
0.000558954
0.000627677
5.08342e-05
5.94291e-05
9.68916e-05
0.000207513
0.000319614
0.000236361
0.00020912
0.000347456
0.000532542
0.000621307
6.78218e-05
7.26377e-05
0.000105357
0.000209676
0.000314664
0.000237188
0.000155996
0.000211573
0.000401546
0.000574412
9.46436e-05
9.1241e-05
0.000108482
0.000195959
0.000296801
0.000276036
0.000198051
0.000113287
0.000158227
0.000373693
0.000135784
0.000122773
0.000112145
0.000161827
0.000254538
0.000335819
0.000398788
0.00020527
8.66142e-05
0.000139056
0.000275332
0.000225256
0.000149715
0.000124056
0.000178692
0.000380129
0.000672791
0.000528923
0.000191561
7.06261e-05
0.000543773
0.000424516
0.000246097
0.0001471
0.000175842
0.000478657
0.000899688
0.000906314
0.00053319
0.000172456
0.000846916
0.00073424
0.000543089
0.000462708
0.000586454
0.00100699
0.00126908
0.00121811
0.00101247
0.000546303
0.00133102
0.00135047
0.00153072
0.00178559
0.00198878
0.00213403
0.00213816
0.00198876
0.00178363
0.00131566
)
;

boundaryField
{
    walls
    {
        type            nutkWallFunction;
        Cmu             0.09;
        kappa           0.41;
        E               9.8;
        value           uniform 0;
    }
    topInlet
    {
        type            calculated;
        value           nonuniform 0();
    }
    bottomInlet
    {
        type            calculated;
        value           nonuniform 0();
    }
    outlet
    {
        type            calculated;
        value           nonuniform List<scalar> 
20
(
0.00136916
0.000593704
0.000197528
7.36528e-05
0.000122779
0.00034192
0.000560533
0.000617366
0.000626619
0.000627933
0.000628106
0.000627677
0.000621307
0.000574412
0.000373693
0.000139056
7.06261e-05
0.000172456
0.000546303
0.00131566
)
;
    }
    frontBack
    {
        type            empty;
    }
    procBoundary3to2
    {
        type            processor;
        value           nonuniform List<scalar> 
20
(
0.00136742
0.000848545
0.000552007
0.000275368
0.000137236
0.00010019
6.79417e-05
4.73905e-05
4.26518e-05
4.18572e-05
4.17874e-05
4.23497e-05
4.6554e-05
6.61095e-05
9.78449e-05
0.000135052
0.000271403
0.00054544
0.000847257
0.0013784
)
;
    }
}


// ************************************************************************* //
