/*--------------------------------*- C++ -*----------------------------------*\
| =========                 |                                                 |
| \\      /  F ield         | OpenFOAM: The Open Source CFD Toolbox           |
|  \\    /   O peration     | Version:  4.x                                   |
|   \\  /    A nd           | Web:      www.OpenFOAM.org                      |
|    \\/     M anipulation  |                                                 |
\*---------------------------------------------------------------------------*/
FoamFile
{
    version     2.0;
    format      ascii;
    class       volScalarField;
    location    "0.05";
    object      p;
}
// * * * * * * * * * * * * * * * * * * * * * * * * * * * * * * * * * * * * * //

dimensions      [1 -1 -2 0 0 0 0];

internalField   nonuniform List<scalar> 
200
(
1605.97
416.849
3637.79
16240.1
30043.1
27468.2
15810.6
11278.6
13776.9
8551.03
123.559
72.1273
600.446
2900.75
2842.95
-3620.67
-7865.02
-4723.67
-2832.1
-2666.43
530.744
145.496
1307.26
5917.78
8621.93
3261.27
-911.764
1362.64
3925.19
2656.45
394.513
195.897
1549.29
6549.66
9633.08
3435.89
-2436.16
-1329.39
373.446
-456.948
440.441
298.463
1791.9
7173.58
10681
4150.77
-1961.9
-232.684
2324.35
1408.03
424.499
361.57
1977.35
7659.45
11497.2
4762.52
-1671.11
-780.288
980.705
212.155
429.073
397.01
2083.94
7951.96
11984
5133.9
-1476.29
-267.063
1787.2
889.651
388.216
384.766
2090.48
8014.69
12084.7
5194.7
-1433.7
-546.752
1324.61
538.297
381.424
377.52
2084.46
8020.63
12096.7
5195.02
-1435
-517.878
1378.57
569.662
377.042
373.127
2080.13
8018.36
12094.5
5191.7
-1439.82
-514.098
1385.48
571.729
373.691
369.93
2077.24
8015.77
12090.5
5185.99
-1443.94
-517.551
1384.13
569.063
367.525
364.001
2071.86
8009.34
12079.9
5176.03
-1452.29
-531.182
1372.73
558.71
351.889
348.586
2055.94
7983.78
12040.3
5143.05
-1479.11
-570.409
1294.02
505.179
341.175
311.499
2001.82
7878.66
11880.9
5012.27
-1577.17
-325.738
1751.79
803.82
275.148
213.97
1834.83
7530.82
11321.1
4556.36
-1844.5
-964.324
838.9
79.7564
231.668
92.5476
1592.87
6991.8
10439.3
3870.49
-2188.72
-202.71
2208.25
1215.08
125.542
-68.592
1293.22
6312.45
9330.21
3086.74
-2753.6
-1620.72
128.04
-716.505
203.692
-178.352
992.185
5616.35
8256.19
2865.38
-1215.4
1264.06
3725.05
2389.12
-269.906
-316.078
220.367
2544.13
2440.91
-4056.49
-8206.73
-4999.11
-3209.94
-3051.43
1171.99
-5.69454
3239.77
15903.7
29590.3
26717.1
14942.9
10783.7
13584.3
8100.82
)
;

boundaryField
{
    walls
    {
        type            calculated;
        value           nonuniform List<scalar> 
20
(
247.212
247.212
247.212
247.212
247.212
247.212
247.212
247.212
247.212
247.212
-244.76
-244.76
-244.76
-244.76
-245.037
-245.943
-246.537
-246.869
-247.127
-247.212
)
;
    }
    topInlet
    {
        type            calculated;
        value           nonuniform 0();
    }
    bottomInlet
    {
        type            calculated;
        value           nonuniform 0();
    }
    outlet
    {
        type            calculated;
        value           nonuniform List<scalar> 
20
(
231.761
200.86
169.958
139.057
108.155
77.2538
44.4387
19.0147
7.21387
1.73643
-1.73643
-7.21387
-19.0147
-44.4387
-77.2537
-108.155
-139.057
-169.958
-200.86
-231.761
)
;
    }
    frontBack
    {
        type            empty;
    }
    procBoundary3to2
    {
        type            processor;
        value           nonuniform List<scalar> 
20
(
2701.13
-76.5925
1047.61
486.488
728.053
537.069
618.859
542.601
537.391
533.467
530.097
523.425
505.042
530.923
387.103
519.232
225.07
717.85
-461.27
2266.73
)
;
    }
}


// ************************************************************************* //
