/*--------------------------------*- C++ -*----------------------------------*\
| =========                 |                                                 |
| \\      /  F ield         | OpenFOAM: The Open Source CFD Toolbox           |
|  \\    /   O peration     | Version:  4.x                                   |
|   \\  /    A nd           | Web:      www.OpenFOAM.org                      |
|    \\/     M anipulation  |                                                 |
\*---------------------------------------------------------------------------*/
FoamFile
{
    version     2.0;
    format      ascii;
    class       volScalarField;
    location    "0.05";
    object      p_rgh;
}
// * * * * * * * * * * * * * * * * * * * * * * * * * * * * * * * * * * * * * //

dimensions      [1 -1 -2 0 0 0 0];

internalField   nonuniform List<scalar> 
200
(
1374.21
185.088
3406.03
16008.4
29811.3
27236.5
15578.8
11046.8
13545.1
8319.26
-77.3009
-128.732
399.586
2699.89
2642.09
-3821.53
-8065.88
-4924.53
-3032.96
-2867.29
360.786
-24.4626
1137.3
5747.82
8451.97
3091.32
-1081.72
1192.68
3755.23
2486.49
255.456
56.8404
1410.24
6410.6
9494.02
3296.84
-2575.22
-1468.45
234.389
-596.005
332.286
190.308
1683.74
7065.43
10572.9
4042.61
-2070.06
-340.839
2216.2
1299.87
347.246
284.316
1900.1
7582.2
11419.9
4685.26
-1748.37
-857.542
903.451
134.901
384.634
352.572
2039.5
7907.52
11939.6
5089.46
-1520.73
-311.502
1742.76
845.212
369.201
365.752
2071.46
7995.67
12065.7
5175.68
-1452.72
-565.766
1305.59
519.282
374.21
370.307
2077.24
8013.42
12089.5
5187.81
-1442.22
-525.092
1371.35
562.448
375.306
371.391
2078.4
8016.63
12092.7
5189.97
-1441.55
-515.835
1383.74
569.993
375.412
371.651
2078.96
8017.49
12092.2
5187.72
-1442.21
-515.814
1385.87
570.799
374.667
371.143
2079
8016.5
12087.1
5183.24
-1445.08
-523.968
1379.94
565.923
370.715
367.412
2074.77
8002.64
12059.2
5162.07
-1460.09
-551.395
1313.04
524.193
385.173
355.496
2045.82
7922.69
11925.3
5056.71
-1532.74
-281.299
1796.23
848.259
351.635
290.458
1911.31
7607.33
11398.1
4633.61
-1767.25
-887.07
916.154
157.01
338.75
199.63
1699.95
7098.89
10547.1
3978.65
-2080.57
-94.5546
2316.4
1323.24
263.22
69.0852
1430.9
6450.13
9468.7
3225.79
-2614.54
-1481.66
267.097
-577.448
371.964
-10.0797
1160.46
5784.62
8425.38
3035.33
-1045.45
1434.02
3895.01
2559.08
-71.0386
-117.211
419.234
2743
2640.73
-3855.63
-8005.87
-4798.25
-3009.08
-2850.57
1401.45
223.767
3469.23
16133.1
29820
26947.7
15174
11015.1
13816
8332.58
)
;

boundaryField
{
    walls
    {
        type            fixedValue;
        value           uniform 0;
    }
    topInlet
    {
        type            fixedValue;
        value           nonuniform 0();
    }
    bottomInlet
    {
        type            fixedValue;
        value           nonuniform 0();
    }
    outlet
    {
        type            fixedValue;
        value           uniform 0;
    }
    frontBack
    {
        type            empty;
    }
    procBoundary3to2
    {
        type            processor;
        value           nonuniform List<scalar> 
20
(
2469.36
-277.452
877.65
347.431
619.898
459.815
574.42
523.587
530.177
531.731
531.818
530.567
523.868
574.92
463.59
626.314
362.747
886.122
-262.403
2496.19
)
;
    }
}


// ************************************************************************* //
