/*--------------------------------*- C++ -*----------------------------------*\
| =========                 |                                                 |
| \\      /  F ield         | OpenFOAM: The Open Source CFD Toolbox           |
|  \\    /   O peration     | Version:  4.x                                   |
|   \\  /    A nd           | Web:      www.OpenFOAM.org                      |
|    \\/     M anipulation  |                                                 |
\*---------------------------------------------------------------------------*/
FoamFile
{
    version     2.0;
    format      ascii;
    class       surfaceScalarField;
    location    "0.05";
    object      phi;
}
// * * * * * * * * * * * * * * * * * * * * * * * * * * * * * * * * * * * * * //

dimensions      [0 3 -1 0 0 0 0];

internalField   nonuniform List<scalar> 
370
(
0.000621035
-7.28801e-05
0.000769752
-0.000160829
0.00116454
-0.000635815
0.0016334
-0.00157941
0.00189841
-0.00230817
0.00182218
-0.00179016
0.0015386
-0.000794307
0.00125018
-0.000485706
0.00085889
-0.000575569
-0.000343597
0.000973616
-8.22244e-05
0.0010554
-0.000242616
0.00116014
-0.000740555
0.00116252
-0.0015818
0.0010833
-0.00222894
0.00102998
-0.00173683
0.00096321
-0.000727539
0.000810572
-0.000333068
0.000515929
-0.000280927
-0.000138878
0.00123507
-7.89171e-05
0.00124765
-0.000255189
0.0012112
-0.000704109
0.00104532
-0.00141591
0.000799213
-0.00198284
0.000640363
-0.00157798
0.000565885
-0.000653061
0.000440749
-0.000207931
0.000245746
-8.59236e-05
-3.58406e-05
0.00139257
-6.27105e-05
0.00135963
-0.00022225
0.00125357
-0.000598043
0.0010154
-0.00117775
0.000680447
-0.00164788
0.000428034
-0.00132557
0.000304443
-0.00052947
0.000197757
-0.000101245
9.27773e-05
1.90561e-05
1.29142e-05
0.00145737
-4.03764e-05
0.00140144
-0.000166321
0.00126062
-0.000457214
0.000985975
-0.000903112
0.000601068
-0.00126298
0.000284947
-0.00100945
0.000130316
-0.000374838
6.55346e-05
-3.64636e-05
4.2508e-05
4.20826e-05
1.56138e-05
0.00145066
-1.94771e-05
0.00138959
-0.00010525
0.00123726
-0.000304886
0.000946283
-0.000612136
0.00053428
-0.000850972
0.000188856
-0.000664023
4.57456e-05
-0.000231728
2.22833e-05
-1.30013e-05
2.86072e-05
3.57588e-05
1.41895e-05
0.00157506
-5.02527e-06
0.00151406
-4.42454e-05
0.00134466
-0.000135488
0.00101097
-0.000278447
0.000534706
-0.00037471
0.00014655
-0.000275867
1.25135e-05
-9.76916e-05
1.09768e-05
-1.14645e-05
3.03525e-05
1.63831e-05
7.31648e-06
0.000712087
-1.7493e-06
0.000686286
-1.84442e-05
0.000607743
-5.69445e-05
0.000445558
-0.000116262
0.000220748
-0.0001499
5.3082e-05
-0.000108201
2.65082e-06
-4.72603e-05
4.65717e-06
-1.34709e-05
1.3117e-05
7.92323e-06
4.5888e-06
0.000328384
-4.35563e-07
0.000316372
-6.43213e-06
0.00027965
-2.02231e-05
0.000202469
-3.9081e-05
9.67432e-05
-4.41737e-05
2.19589e-05
-3.34166e-05
9.86062e-07
-2.62875e-05
2.28519e-06
-1.477e-05
5.88414e-06
4.32428e-06
3.30082e-06
0.000152233
1.80583e-07
0.000146604
-8.03926e-07
0.00012947
-3.08897e-06
9.33614e-05
-2.97223e-06
4.4095e-05
5.0927e-06
9.81064e-06
8.67733e-07
4.59467e-07
-1.69363e-05
1.09162e-06
-1.54021e-05
2.70627e-06
2.70963e-06
2.70015e-06
0.000152221
7.95807e-07
0.000146592
4.82596e-06
0.000129448
1.40549e-05
9.33216e-05
3.31539e-05
4.40597e-05
5.43546e-05
9.79808e-06
3.51293e-05
4.5745e-07
-7.5957e-06
1.09153e-06
-1.60362e-05
2.70608e-06
1.09507e-06
2.09989e-06
0.000328281
2.10013e-06
0.000316256
1.68505e-05
0.000279455
5.08566e-05
0.000202126
0.000110483
9.64325e-05
0.000160048
2.18461e-05
0.000109716
9.67665e-07
1.32827e-05
2.28452e-06
-1.73531e-05
5.88248e-06
-2.50288e-06
8.15639e-07
0.000711471
5.31164e-06
0.000685625
4.26967e-05
0.000606685
0.000129797
0.000443772
0.000273395
0.000219099
0.000384721
5.24442e-05
0.000276371
2.54256e-06
6.31844e-05
4.6651e-06
-1.94756e-05
1.31002e-05
-1.0938e-05
-1.9005e-06
0.001572
1.95499e-05
0.00151083
0.000103859
0.00133994
0.000300693
0.00100352
0.000609808
0.000527591
0.000860654
0.000143264
0.000660698
1.17905e-05
0.000194658
1.08434e-05
-1.85285e-05
3.03082e-05
-3.04028e-05
-8.64596e-06
0.00144758
4.0583e-05
0.00138605
0.000165398
0.00123193
0.000454812
0.000937877
0.000903857
0.000526187
0.00127234
0.000184635
0.00100225
4.34634e-05
0.00033583
2.07991e-05
4.13578e-06
2.7935e-05
-3.75386e-05
-1.06243e-05
0.00145463
6.33399e-05
0.00139785
0.000222177
0.0012548
0.000597863
0.000976663
0.001182
0.000592157
0.00165685
0.000279909
0.0013145
0.000124657
0.000491081
5.99141e-05
6.88789e-05
3.99718e-05
-1.75964e-05
-9.44852e-06
0.00139022
8.00716e-05
0.00135624
0.000256152
0.00124773
0.000706372
0.00100585
0.00142388
0.000671354
0.00199135
0.000423347
0.0015625
0.000297056
0.000617373
0.000184606
0.000181329
8.30854e-05
8.39247e-05
3.39269e-05
0.00123285
8.39154e-05
0.00124448
0.000244527
0.00120579
0.000745055
0.00103627
0.0015934
0.000790267
0.00223735
0.000634904
0.00171787
0.00055691
0.000695367
0.00042044
0.000317798
0.000223406
0.000280959
0.00013227
0.000971052
7.50736e-05
0.00105233
0.000163254
0.00115565
0.000641735
0.00115481
0.00159424
0.00107403
0.00231813
0.00102056
0.00177134
0.000949543
0.000766382
0.000784756
0.000482585
0.000478747
0.000586968
0.000338655
0.000618235
0.00076671
0.00116066
0.00162508
0.00188165
0.00179573
0.00150812
0.00121657
0.000814804
)
;

boundaryField
{
    walls
    {
        type            calculated;
        value           nonuniform List<scalar> 
20
(
8.08326e-05
1.21117e-05
0.000241025
0.00111056
0.00204315
0.00186638
0.00107789
0.000774127
0.000966858
0.000603871
8.32031e-05
1.47791e-05
0.000247783
0.00112982
0.00206155
0.00185726
0.001054
0.000774132
0.000988733
0.000606535
)
;
    }
    topInlet
    {
        type            calculated;
        value           nonuniform 0();
    }
    bottomInlet
    {
        type            calculated;
        value           nonuniform 0();
    }
    outlet
    {
        type            calculated;
        value           nonuniform List<scalar> 
20
(
0.000598617
0.00031121
0.000142709
4.40226e-05
3.98083e-05
3.00315e-05
3.72254e-05
1.58447e-05
7.17212e-06
3.30695e-06
3.30634e-06
7.16673e-06
1.58163e-05
3.70536e-05
2.99133e-05
3.87961e-05
3.971e-05
0.000125063
0.000272362
0.000546924
)
;
    }
    frontBack
    {
        type            empty;
        value           nonuniform 0();
    }
    procBoundary3to2
    {
        type            processor;
        value           nonuniform List<scalar> 
20
(
-0.000628988
-0.000964272
-0.00123838
-0.00140878
-0.00147971
-0.00147156
-0.00158951
-0.000715363
-0.000329698
-0.000152849
-0.000152837
-0.000329585
-0.000714683
-0.00158623
-0.00146862
-0.00147739
-0.00140695
-0.0012367
-0.00096221
-0.000626365
)
;
    }
}


// ************************************************************************* //
