/*--------------------------------*- C++ -*----------------------------------*\
| =========                 |                                                 |
| \\      /  F ield         | OpenFOAM: The Open Source CFD Toolbox           |
|  \\    /   O peration     | Version:  4.x                                   |
|   \\  /    A nd           | Web:      www.OpenFOAM.org                      |
|    \\/     M anipulation  |                                                 |
\*---------------------------------------------------------------------------*/
FoamFile
{
    version     2.0;
    format      ascii;
    class       volVectorField;
    location    "0.05";
    object      U;
}
// * * * * * * * * * * * * * * * * * * * * * * * * * * * * * * * * * * * * * //

dimensions      [0 1 -1 0 0 0 0];

internalField   nonuniform List<vector> 
200
(
(7.6959 -0.414635 0)
(8.14568 -0.28716 0)
(11.7027 -1.52475 0)
(18.27 -4.66892 0)
(23.7118 -7.54952 0)
(24.7506 -6.90543 0)
(21.7363 -4.23682 0)
(17.6927 -3.00299 0)
(14.5233 -3.48018 0)
(7.48544 -2.52538 0)
(12.1907 0.0769943 0)
(12.7443 -0.170527 0)
(14.3462 -0.39256 0)
(15.4077 -0.569156 0)
(14.372 -0.50607 0)
(13.2762 0.246208 0)
(13.0667 0.921521 0)
(11.6971 0.844032 0)
(9.03027 0.979608 0)
(4.07411 0.931967 0)
(15.7226 -0.197611 0)
(15.8819 -0.341507 0)
(16.0617 -0.880334 0)
(15.0244 -1.87831 0)
(11.772 -2.70823 0)
(8.57997 -2.39701 0)
(7.78629 -1.45722 0)
(6.79981 -0.916089 0)
(4.53942 -0.935493 0)
(1.75633 -0.737918 0)
(17.9067 -0.0524842 0)
(17.705 -0.268079 0)
(17.0658 -0.698595 0)
(15.116 -1.38255 0)
(10.9265 -1.92443 0)
(6.36392 -1.48506 0)
(4.5513 -0.412854 0)
(3.36846 0.150438 0)
(1.70405 0.439993 0)
(0.594899 0.392333 0)
(18.8275 -0.0907606 0)
(18.4351 -0.238414 0)
(17.3861 -0.566325 0)
(14.9888 -1.10832 0)
(10.3077 -1.54871 0)
(4.92195 -1.23959 0)
(2.32191 -0.532315 0)
(1.1483 -0.219172 0)
(0.574918 -0.222539 0)
(0.479693 -0.202305 0)
(18.7504 -0.0229028 0)
(18.3358 -0.150654 0)
(17.1764 -0.402302 0)
(14.6167 -0.804585 0)
(9.66851 -1.12229 0)
(3.82302 -0.887108 0)
(0.966136 -0.30101 0)
(0.294321 0.0796079 0)
(0.304709 0.203245 0)
(0.385376 0.136792 0)
(18.0734 -0.0216001 0)
(17.76 -0.0901046 0)
(16.6724 -0.240571 0)
(14.0994 -0.490834 0)
(8.9879 -0.675749 0)
(2.96981 -0.506805 0)
(0.302973 -0.172468 0)
(0.0316433 -0.078827 0)
(0.249445 -0.0701982 0)
(0.407161 -0.0586864 0)
(17.5773 -0.00243554 0)
(17.3393 -0.0362549 0)
(16.2792 -0.103125 0)
(13.621 -0.212537 0)
(8.30331 -0.281805 0)
(2.40767 -0.20334 0)
(0.147509 -0.0758196 0)
(0.0109892 0.00297727 0)
(0.239075 0.03283 0)
(0.385066 0.0195808 0)
(17.4663 -0.00141735 0)
(17.2363 -0.0146154 0)
(16.1587 -0.0413662 0)
(13.4287 -0.0833403 0)
(8.00131 -0.103932 0)
(2.19456 -0.0753585 0)
(0.107807 -0.0390812 0)
(0.011526 -0.014867 0)
(0.238236 0.00610464 0)
(0.378364 0.0039469 0)
(17.4473 -0.000180765 0)
(17.2156 -0.00424084 0)
(16.1278 -0.0124614 0)
(13.3695 -0.0225265 0)
(7.90394 -0.0209344 0)
(2.13171 -0.0173667 0)
(0.0973176 -0.0230532 0)
(0.0125469 -0.0161929 0)
(0.238499 0.00348322 0)
(0.376438 0.00303192 0)
(17.446 0.000651074 0)
(17.2143 0.00237674 0)
(16.1261 0.00590654 0)
(13.366 0.0162126 0)
(7.89833 0.0318071 0)
(2.12927 0.0192224 0)
(0.0969073 -0.0130683 0)
(0.012502 -0.0167175 0)
(0.238525 0.00230942 0)
(0.376368 0.00272346 0)
(17.4608 0.00187342 0)
(17.2309 0.0126986 0)
(16.1518 0.0347118 0)
(13.4148 0.0769856 0)
(7.9787 0.114752 0)
(2.18434 0.0771252 0)
(0.106026 0.00285941 0)
(0.0113502 -0.0183855 0)
(0.238341 0.000198934 0)
(0.378073 0.00203041 0)
(17.5618 0.00300596 0)
(17.3245 0.0344269 0)
(16.2614 0.0967234 0)
(13.5873 0.206608 0)
(8.24899 0.292534 0)
(2.38104 0.204545 0)
(0.14232 0.0389676 0)
(0.0105858 -0.0350208 0)
(0.239305 -0.0264049 0)
(0.384287 -0.0128003 0)
(18.0377 0.0212431 0)
(17.7257 0.0880357 0)
(16.633 0.235045 0)
(14.0327 0.486747 0)
(8.88371 0.686263 0)
(2.91124 0.505308 0)
(0.28786 0.137227 0)
(0.0292397 0.0567752 0)
(0.248816 0.0783815 0)
(0.405798 0.0616608 0)
(18.7122 0.0237186 0)
(18.2951 0.149601 0)
(17.1261 0.398874 0)
(14.532 0.803688 0)
(9.53636 1.13232 0)
(3.74711 0.88157 0)
(0.934567 0.25477 0)
(0.266356 -0.131631 0)
(0.292457 -0.201447 0)
(0.382222 -0.127552 0)
(18.7955 0.0905229 0)
(18.3963 0.237423 0)
(17.3324 0.56475 0)
(14.8953 1.11086 0)
(10.1611 1.5584 0)
(4.83884 1.23066 0)
(2.27746 0.500932 0)
(1.0518 0.211867 0)
(0.521602 0.236139 0)
(0.467637 0.203473 0)
(17.8807 0.0540164 0)
(17.6702 0.268897 0)
(17.0131 0.700017 0)
(15.0208 1.38989 0)
(10.7756 1.93425 0)
(6.2808 1.46762 0)
(4.51602 0.361045 0)
(3.21681 -0.197971 0)
(1.51746 -0.457292 0)
(0.537523 -0.387462 0)
(15.6982 0.200043 0)
(15.8488 0.343679 0)
(16.0131 0.884475 0)
(14.9357 1.88822 0)
(11.6274 2.71667 0)
(8.49411 2.38169 0)
(7.73391 1.42617 0)
(6.62781 0.897527 0)
(4.18811 0.956972 0)
(1.53267 0.732681 0)
(12.1611 -0.0770928 0)
(12.7082 0.170014 0)
(14.3032 0.39368 0)
(15.3367 0.575021 0)
(14.2443 0.510185 0)
(13.1651 -0.260388 0)
(12.939 -0.933701 0)
(11.4764 -0.848114 0)
(8.58527 -1.0136 0)
(3.57342 -0.945274 0)
(7.66124 0.424556 0)
(8.10808 0.299449 0)
(11.6623 1.54605 0)
(18.2144 4.71857 0)
(23.5545 7.58591 0)
(24.473 6.85888 0)
(21.3326 4.14772 0)
(17.328 2.99823 0)
(14.0313 3.56346 0)
(6.83029 2.53208 0)
)
;

boundaryField
{
    walls
    {
        type            noSlip;
    }
    topInlet
    {
        type            fixedValue;
        value           nonuniform 0();
    }
    bottomInlet
    {
        type            fixedValue;
        value           nonuniform 0();
    }
    outlet
    {
        type            zeroGradient;
    }
    frontBack
    {
        type            empty;
    }
    procBoundary3to2
    {
        type            processor;
        value           nonuniform List<vector> 
20
(
(8.3283 -0.669086 0)
(12.4848 0.172774 0)
(15.9529 -0.214096 0)
(18.1392 0.0386016 0)
(19.0325 -0.0551485 0)
(18.9054 0.0328648 0)
(18.1207 -0.00524699 0)
(17.5277 0.0122136 0)
(17.3954 0.00398687 0)
(17.3737 0.00156378 0)
(17.3723 0.000120331 0)
(17.3891 -0.00225232 0)
(17.5099 -0.0104867 0)
(18.0818 0.00551027 0)
(18.8681 -0.0305188 0)
(19.0049 0.0550712 0)
(18.118 -0.0361463 0)
(15.9339 0.216754 0)
(12.461 -0.172687 0)
(8.29595 0.680125 0)
)
;
    }
}


// ************************************************************************* //
