/*--------------------------------*- C++ -*----------------------------------*\
| =========                 |                                                 |
| \\      /  F ield         | OpenFOAM: The Open Source CFD Toolbox           |
|  \\    /   O peration     | Version:  4.x                                   |
|   \\  /    A nd           | Web:      www.OpenFOAM.org                      |
|    \\/     M anipulation  |                                                 |
\*---------------------------------------------------------------------------*/
FoamFile
{
    version     2.0;
    format      ascii;
    class       surfaceScalarField;
    location    "0.05";
    object      alphaPhi;
}
// * * * * * * * * * * * * * * * * * * * * * * * * * * * * * * * * * * * * * //

dimensions      [0 3 -1 0 0 0 0];

internalField   nonuniform List<scalar> 
370
(
1.38511e-101
2.77207e-103
8.29122e-101
1.55022e-102
2.29141e-78
3.75147e-80
1.05616e-70
1.23999e-72
6.09879e-64
4.04518e-66
8.61078e-54
3.13527e-57
4.20795e-48
-1.13026e-57
1.51799e-43
-3.54925e-52
1.16396e-39
-2.70926e-47
-4.55025e-43
6.17914e-103
1.63795e-104
6.14708e-102
1.61605e-103
1.59602e-79
3.96841e-81
5.07309e-72
1.12459e-73
1.60244e-65
3.01692e-67
1.21002e-56
1.83815e-58
2.15053e-55
2.43648e-57
3.19266e-50
2.30581e-52
1.57553e-45
3.56986e-48
-8.3094e-47
3.35678e-104
9.42248e-106
4.88268e-103
1.36144e-104
1.32348e-80
3.53994e-82
3.56921e-73
8.75306e-75
9.17121e-67
1.9883e-68
5.37624e-58
1.00259e-59
1.91584e-56
2.97972e-58
1.91719e-51
2.37632e-53
2.9547e-47
2.70083e-49
2.12057e-46
1.90299e-105
5.47246e-107
3.84103e-104
1.10356e-105
1.13619e-81
3.08706e-83
2.66218e-74
6.55022e-76
5.76201e-68
1.24817e-69
2.77972e-59
5.18985e-61
1.91426e-57
3.01407e-59
1.62681e-52
2.10897e-54
2.1444e-48
2.2171e-50
7.59296e-47
1.1008e-106
3.28746e-108
3.0487e-105
8.99875e-107
9.90069e-83
2.6903e-84
1.98963e-75
4.78686e-77
3.60653e-69
7.56714e-71
1.43187e-60
2.58282e-62
2.47859e-58
3.78988e-60
2.48581e-53
3.18955e-55
6.54326e-49
6.97095e-51
6.508e-47
6.60123e-108
2.12792e-109
2.49853e-106
7.83183e-108
8.76401e-84
2.42962e-85
1.47847e-76
3.55921e-78
2.22253e-70
4.66274e-72
7.25423e-62
1.31959e-63
2.12976e-58
3.3561e-60
3.5131e-53
4.82764e-55
9.4858e-49
1.14636e-50
5.16411e-49
4.46101e-109
1.64536e-110
2.44216e-107
8.41305e-109
9.1523e-85
2.6279e-86
1.26463e-77
3.13183e-79
1.57045e-71
3.40614e-73
-8.03584e-63
-1.53501e-64
1.04466e-57
1.7808e-59
2.08843e-52
3.21948e-54
-2.71248e-46
-3.81665e-48
-8.03799e-44
5.53304e-110
5.70001e-111
6.49471e-106
4.92213e-107
8.12364e-76
4.57445e-77
7.51924e-70
3.35454e-71
4.31359e-65
1.55642e-66
-3.35053e-53
-1.00127e-54
-2.66003e-49
-6.75242e-51
-7.93978e-46
-1.74786e-47
-5.9024e-41
-1.14431e-42
-3.14453e-39
1.02373e-100
1.61364e-101
4.17825e-97
3.39251e-98
4.00448e-67
2.21257e-68
1.59501e-63
6.58216e-65
2.53263e-60
8.13506e-62
-1.02656e-50
-2.67899e-52
-2.40865e-44
-5.30282e-46
-3.85313e-41
-7.37471e-43
-8.95462e-38
-1.52297e-39
-1.24385e-36
1.91743e-92
6.43869e-92
4.71541e-93
1.44591e-92
5.50636e-69
1.66193e-68
1.61312e-65
4.96993e-65
1.92888e-62
6.20779e-62
-5.3211e-50
-3.71839e-52
-7.74577e-44
-5.55137e-46
-1.11287e-40
-8.33209e-43
-4.91605e-37
-3.85603e-39
-3.26809e-36
6.75242e-05
-2.55487e-05
8.20952e-05
-1.4571e-05
9.25904e-05
-1.04952e-05
0.000100659
-8.06893e-06
0.000106959
-6.29957e-06
0.000111989
-5.02996e-06
0.000116082
-4.09291e-06
0.000119436
-3.35381e-06
0.000122187
-2.75175e-06
-2.28731e-06
0.000166567
-5.42634e-05
0.000192536
-4.05394e-05
0.000212582
-3.0542e-05
0.000228977
-2.4464e-05
0.000242589
-1.99109e-05
0.00025407
-1.65112e-05
0.000263945
-1.39679e-05
0.000272573
-1.19813e-05
0.000280199
-1.03778e-05
-9.10225e-06
0.000527871
-6.03804e-05
0.000543205
-5.58736e-05
0.000558778
-4.6115e-05
0.000573706
-3.93926e-05
0.000587938
-3.41426e-05
0.000601145
-2.97179e-05
0.000613338
-2.61614e-05
0.000624634
-2.32769e-05
0.000635126
-2.08704e-05
-1.88939e-05
0.00163871
-4.90999e-05
0.00163034
-4.75004e-05
0.00162595
-4.17208e-05
0.00162249
-3.59384e-05
0.00161938
-3.10278e-05
0.00161625
-2.65923e-05
0.00161278
-2.26876e-05
0.00160889
-1.93861e-05
0.00160467
-1.66529e-05
-1.45767e-05
0.00153869
-4.56293e-05
0.00153611
-4.49173e-05
0.0015355
-4.11093e-05
0.00153568
-3.61234e-05
0.00153587
-3.12149e-05
0.00153579
-2.65175e-05
0.0015352
-2.20959e-05
0.00153388
-1.80645e-05
0.00153172
-1.44876e-05
-1.15799e-05
0.00154889
-4.38929e-05
0.00154766
-4.3691e-05
0.00154762
-4.1066e-05
0.00154838
-3.68909e-05
0.00154934
-3.21726e-05
0.00155021
-2.7388e-05
0.00155079
-2.26695e-05
0.00155081
-1.80903e-05
0.00155014
-1.38194e-05
-1.02815e-05
0.00155032
-4.23832e-05
0.00154844
-4.18098e-05
0.00154712
-3.97523e-05
0.00154626
-3.60302e-05
0.00154554
-3.14523e-05
0.00154477
-2.66127e-05
0.00154376
-2.16581e-05
0.00154217
-1.65035e-05
0.00153963
-1.1281e-05
-6.67383e-06
0.00153416
-3.73138e-05
0.00152878
-3.64237e-05
0.00152281
-3.37861e-05
0.00151621
-2.94257e-05
0.00150919
-2.44387e-05
0.00150163
-1.90444e-05
0.00149349
-1.35246e-05
0.00148441
-7.41961e-06
0.00147385
-7.19187e-07
5.73199e-06
0.00143434
-2.20144e-05
0.00141777
-1.98582e-05
0.00140056
-1.65746e-05
0.001382
-1.08617e-05
0.00136309
-5.53411e-06
0.00134286
1.18605e-06
0.00132066
8.6788e-06
0.00129683
1.64104e-05
0.00127213
2.3977e-05
3.1e-05
0.00113565
0.00110497
0.00107379
0.00104378
0.00101466
0.000987548
0.000962939
0.00094049
0.000919491
)
;

boundaryField
{
    walls
    {
        type            calculated;
        value           nonuniform List<scalar> 
20
(
1.03848e-103
7.45973e-103
2.89763e-80
1.81318e-72
1.34768e-65
2.35927e-55
1.39446e-49
6.01517e-45
5.46916e-41
1.51767e-37
9.28154e-06
1.08259e-05
1.46059e-05
1.91415e-05
2.35899e-05
2.82983e-05
3.32884e-05
3.88594e-05
4.49758e-05
5.1478e-05
)
;
    }
    topInlet
    {
        type            calculated;
        value           nonuniform 0();
    }
    bottomInlet
    {
        type            calculated;
        value           nonuniform 0();
    }
    outlet
    {
        type            calculated;
        value           nonuniform 0();
    }
    frontBack
    {
        type            empty;
        value           nonuniform 0();
    }
    procBoundary1to0
    {
        type            processor;
        value           nonuniform List<scalar> 
20
(
-2.92745e-102
-6.83369e-111
-5.79197e-113
-1.27126e-114
-5.32209e-116
-3.11822e-117
-4.8161e-118
-5.30679e-112
-4.0967e-101
-7.45262e-92
-4.19755e-05
-0.000137852
-0.000521754
-0.00165
-0.00154216
-0.00155062
-0.00155183
-0.00153923
-0.00144964
-0.00116695
)
;
    }
    procBoundary1to2
    {
        type            processor;
        value           nonuniform List<scalar> 
20
(
2.75266e-36
1.96481e-41
3.55143e-44
9.42444e-45
7.3841e-45
4.79045e-47
-6.21357e-42
-1.82163e-37
-8.13952e-35
-4.10505e-34
0.000124475
0.000287014
0.000644918
0.00160035
0.00152872
0.00154884
0.00153602
0.00146144
0.00124686
0.000899013
)
;
    }
}


// ************************************************************************* //
