/*--------------------------------*- C++ -*----------------------------------*\
| =========                 |                                                 |
| \\      /  F ield         | OpenFOAM: The Open Source CFD Toolbox           |
|  \\    /   O peration     | Version:  4.x                                   |
|   \\  /    A nd           | Web:      www.OpenFOAM.org                      |
|    \\/     M anipulation  |                                                 |
\*---------------------------------------------------------------------------*/
FoamFile
{
    version     2.0;
    format      ascii;
    class       volScalarField;
    location    "0.05";
    object      epsilon;
}
// * * * * * * * * * * * * * * * * * * * * * * * * * * * * * * * * * * * * * //

dimensions      [0 2 -3 0 0 0 0];

internalField   nonuniform List<scalar> 
200
(
36716.4
36262.5
35448.3
34356.1
33075.7
31685.5
30160.1
28643.9
27229.5
25952.9
4241.93
4533.01
4674.11
4674.53
4579.86
4420.18
4287.36
4170.56
4062.46
3955.3
464.134
546.694
610.721
651.657
670.918
672.601
663.991
650.246
633.889
622.703
71.3297
85.8407
99.92
111.82
120.497
125.695
127.769
127.361
125.165
122.164
24.6154
27.0864
29.8164
32.5364
34.9868
36.9622
38.3279
39.0269
39.0687
38.5438
38.1986
37.2639
36.1559
34.8959
33.5148
32.0417
30.499
28.9055
27.2785
25.6363
126.771
103.045
82.6864
66.4304
53.833
44.1719
36.7604
31.0411
26.5858
23.0704
1628.05
827.038
434.635
240.507
140.725
87.0374
56.7746
38.9534
28.0266
21.0716
9568.07
2675.91
923.598
381.006
182.087
97.9545
57.9578
37.079
25.3394
18.3356
21234.9
3891.51
1097.77
412.44
188.351
98.8226
57.5603
36.4258
24.6948
17.763
21133.7
3880.34
1095.62
411.785
188.077
98.6796
57.4717
36.3635
24.6471
17.7243
9572.48
2668.94
919.898
379.268
181.198
97.434
57.6118
36.8252
25.1398
18.1715
1654.63
835.935
437.28
241.002
140.509
86.614
56.3182
38.5204
27.6314
20.7152
128.226
103.886
83.0934
66.5602
53.7954
44.0366
36.57
30.8204
26.3485
22.8247
38.9457
37.9511
36.7756
35.4425
33.9854
32.4364
30.8198
29.1558
27.4632
25.7636
24.9914
27.4988
30.2533
32.977
35.4098
37.3483
38.6604
39.2888
39.2523
38.6661
72.743
87.4841
101.685
113.571
122.152
127.208
129.119
128.488
126.052
123.052
476.624
560.32
624.519
664.765
683.283
684.387
675.481
660.89
643.763
635.126
4372.78
4660.61
4794.81
4783.37
4682.02
4525.17
4395.85
4278.97
4169.07
4055.54
37756.9
37282
36435.3
35305.2
33983.2
32530.9
30950.3
29395.5
27956.7
26662.9
)
;

boundaryField
{
    walls
    {
        Cmu             0.09;
        kappa           0.41;
        E               9.8;
        type            epsilonWallFunction;
        value           nonuniform List<scalar> 
20
(
36716.4
36262.5
35448.3
34356.1
33075.7
31685.5
30160.1
28643.9
27229.5
25952.9
37756.9
37282
36435.3
35305.2
33983.2
32530.9
30950.3
29395.5
27956.7
26662.9
)
;
    }
    topInlet
    {
        type            fixedValue;
        value           nonuniform 0();
    }
    bottomInlet
    {
        type            fixedValue;
        value           nonuniform 0();
    }
    outlet
    {
        type            zeroGradient;
    }
    frontBack
    {
        type            empty;
    }
    procBoundary1to0
    {
        type            processor;
        value           nonuniform List<scalar> 
20
(
36789.7
3785.65
370.904
58.101
22.5872
38.9326
149.398
3038.39
41188.8
248168
246766
41466.4
3106.73
151.503
39.7304
22.9264
59.2313
381.377
3917.45
37836.6
)
;
    }
    procBoundary1to2
    {
        type            processor;
        value           nonuniform List<scalar> 
20
(
24801.5
3847.14
619.704
119.498
37.6178
24.0019
20.2516
16.4867
13.9518
13.4582
13.4258
13.8132
16.1668
20.0027
24.0819
37.697
120.455
633.56
3942.12
25494.9
)
;
    }
}


// ************************************************************************* //
