/*--------------------------------*- C++ -*----------------------------------*\
| =========                 |                                                 |
| \\      /  F ield         | OpenFOAM: The Open Source CFD Toolbox           |
|  \\    /   O peration     | Version:  4.x                                   |
|   \\  /    A nd           | Web:      www.OpenFOAM.org                      |
|    \\/     M anipulation  |                                                 |
\*---------------------------------------------------------------------------*/
FoamFile
{
    version     2.0;
    format      ascii;
    class       volScalarField;
    location    "0.05";
    object      k;
}
// * * * * * * * * * * * * * * * * * * * * * * * * * * * * * * * * * * * * * //

dimensions      [0 2 -2 0 0 0 0];

internalField   nonuniform List<scalar> 
200
(
27.3646
27.1385
26.7308
26.1789
25.5243
24.804
24.0014
23.1901
22.4203
21.7139
5.28183
5.61552
5.85234
5.9859
6.03862
6.02611
6.01615
6.00417
5.98628
5.95323
0.917172
1.03537
1.14154
1.22947
1.29799
1.34869
1.3867
1.41643
1.44006
1.46859
0.38102
0.394973
0.409052
0.421629
0.431657
0.438799
0.443256
0.445527
0.446202
0.446519
0.327826
0.324953
0.321649
0.31757
0.312444
0.306106
0.298503
0.289694
0.279838
0.269227
0.269723
0.263877
0.257503
0.25048
0.242838
0.23465
0.225994
0.216961
0.207651
0.198176
0.106006
0.101504
0.0970572
0.0930712
0.0897768
0.0872171
0.0853618
0.0841518
0.0834993
0.0832953
0.552851
0.363913
0.24632
0.173785
0.12836
0.0993159
0.0803932
0.0679329
0.0597386
0.0544476
2.04618
0.817874
0.396649
0.224765
0.143716
0.100784
0.0759979
0.0608456
0.0513023
0.0452865
3.27754
0.982126
0.427057
0.231682
0.144912
0.10018
0.0747416
0.0593357
0.0496878
0.0436271
3.26813
0.980544
0.426553
0.231445
0.144768
0.100072
0.0746482
0.0592469
0.0495991
0.0435369
2.04661
0.816083
0.39546
0.22404
0.143208
0.100366
0.0756132
0.0604683
0.0509199
0.0448942
0.56101
0.367457
0.24765
0.17405
0.128097
0.0987736
0.079688
0.0671182
0.058838
0.0534756
0.104861
0.100335
0.0958401
0.0917985
0.0884477
0.0858317
0.083918
0.0826438
0.0819218
0.0816513
0.267524
0.26163
0.255206
0.24813
0.240439
0.232209
0.223524
0.214476
0.205167
0.195721
0.327158
0.324227
0.320849
0.316677
0.311439
0.304977
0.29724
0.288285
0.278279
0.267558
0.381664
0.395886
0.410145
0.422781
0.432796
0.439871
0.444209
0.446213
0.446523
0.446847
0.931238
1.05095
1.15777
1.2455
1.31373
1.36413
1.40204
1.43075
1.45332
1.48547
5.39793
5.72884
5.96061
6.08551
6.13318
6.12296
6.11606
6.10444
6.08521
6.04405
27.8791
27.6449
27.2247
26.6588
25.9891
25.2433
24.4188
23.594
22.8177
22.1082
)
;

boundaryField
{
    walls
    {
        type            kqRWallFunction;
        value           nonuniform List<scalar> 
20
(
27.3646
27.1385
26.7308
26.1789
25.5243
24.804
24.0014
23.1901
22.4203
21.7139
27.8791
27.6449
27.2247
26.6588
25.9891
25.2433
24.4188
23.594
22.8177
22.1082
)
;
    }
    topInlet
    {
        type            fixedValue;
        value           nonuniform 0();
    }
    bottomInlet
    {
        type            fixedValue;
        value           nonuniform 0();
    }
    outlet
    {
        type            zeroGradient;
    }
    frontBack
    {
        type            empty;
    }
    procBoundary1to0
    {
        type            processor;
        value           nonuniform List<scalar> 
20
(
27.4
4.8531
0.794511
0.368667
0.330598
0.275361
0.109995
0.811068
6.14168
22.7762
22.6903
6.17791
0.82736
0.108799
0.273212
0.329985
0.369007
0.80637
4.97098
27.9173
)
;
    }
    procBoundary1to2
    {
        type            processor;
        value           nonuniform List<scalar> 
20
(
21.0668
5.90288
1.50748
0.448406
0.258315
0.188667
0.0834197
0.0511864
0.0416347
0.0399587
0.0398662
0.0412314
0.050155
0.081714
0.186273
0.256577
0.448833
1.52646
5.98675
21.4577
)
;
    }
}


// ************************************************************************* //
