/*--------------------------------*- C++ -*----------------------------------*\
| =========                 |                                                 |
| \\      /  F ield         | OpenFOAM: The Open Source CFD Toolbox           |
|  \\    /   O peration     | Version:  4.x                                   |
|   \\  /    A nd           | Web:      www.OpenFOAM.org                      |
|    \\/     M anipulation  |                                                 |
\*---------------------------------------------------------------------------*/
FoamFile
{
    version     2.0;
    format      ascii;
    class       volScalarField;
    location    "0.05";
    object      p;
}
// * * * * * * * * * * * * * * * * * * * * * * * * * * * * * * * * * * * * * //

dimensions      [1 -1 -2 0 0 0 0];

internalField   nonuniform List<scalar> 
200
(
2240.54
2235.5
2569.32
2877.16
3083.46
3208.23
3283.86
3342
3387.91
3409.92
-330.791
50.5608
286.828
246.343
183.127
122.795
28.646
-85.3932
-150.533
-224.995
2198.85
2212.44
2303.23
2308.03
2269.04
2210.27
2124.1
1997.4
1825.22
1719.08
1965.58
2282.02
2531.77
2572.32
2394.77
2095.41
1742.78
1365.2
1003.78
724.292
3001.09
3505.65
3837.16
3784.63
3415.63
2937.55
2469.87
2047.67
1697.13
1451
3396.8
4328.84
4829.97
4637.3
4036.44
3363.93
2736.62
2171.31
1685.39
1303.66
3995
5901.48
6608.19
6032.78
5034.56
4086.79
3256.33
2541.01
1957.92
1523.43
3197.27
6826.38
7732.88
6736.26
5450.54
4331.53
3385.88
2597.83
1972.06
1510.48
2327.27
7181.11
8076.32
6941.19
5586.11
4419.02
3439.28
2629.57
1990.21
1519.66
2078.52
7370.83
8172.87
6988.71
5614.87
4435.29
3447.63
2633.3
1991.17
1518.95
2067.63
7364.75
8167.61
6984.09
5610.64
4431.29
3443.77
2629.51
1987.46
1515.38
2294.35
7160.9
8058.71
6924.97
5570.66
4403.98
3424.42
2614.72
1975.5
1505.35
3136.35
6783.93
7695.88
6700.21
5414.6
4295.45
3349.39
2560.75
1934.96
1474.18
3907.57
5832.61
6543.34
5963.92
4961.75
4011.12
3177.71
2459.75
1876.79
1445.96
3238.63
4181.29
4687.76
4495.56
3894.69
3221.12
2589.77
2018.15
1527.79
1144.7
2796.42
3302.22
3638.08
3589.04
3223.92
2747.55
2278.7
1856.4
1515.64
1281.42
1702.34
2018.29
2266.69
2308.29
2132.4
1826.5
1459.53
1065.67
703.535
450.787
1882.75
1903.11
2001.78
2022.54
2004.11
1943.65
1847.29
1692.7
1532.72
1411.43
-772.846
-397.176
-171.887
-211.865
-222.083
-280.042
-384.788
-480.514
-553.516
-633.404
1934.54
1926.76
2255.13
2563.28
2736.08
2849.18
2920.99
2981.13
3024.42
3040.18
)
;

boundaryField
{
    walls
    {
        type            calculated;
        value           nonuniform List<scalar> 
20
(
247.212
247.212
247.212
247.212
247.212
247.212
247.212
247.212
247.212
247.212
-244.76
-244.76
-244.76
-244.76
-244.76
-244.76
-244.76
-244.759
-244.759
-244.759
)
;
    }
    topInlet
    {
        type            calculated;
        value           nonuniform 0();
    }
    bottomInlet
    {
        type            calculated;
        value           nonuniform 0();
    }
    outlet
    {
        type            calculated;
        value           nonuniform 0();
    }
    frontBack
    {
        type            empty;
    }
    procBoundary1to0
    {
        type            processor;
        value           nonuniform List<scalar> 
20
(
4492
-185.754
2682.4
1626.66
2551.88
2470.71
1896.56
664.735
-23.9977
-73.3403
-110.144
-86.5204
584.168
1787.93
2305.12
2361.18
1343.17
2362.5
-619.488
4145.29
)
;
    }
    procBoundary1to2
    {
        type            processor;
        value           nonuniform List<scalar> 
20
(
3394.25
-275.004
1602.86
591.494
1296.55
1035.42
1231.43
1196.56
1199.37
1197.55
1194.03
1185.14
1160.12
1156.29
872.325
1122.59
317.201
1294.18
-669.743
3015.68
)
;
    }
}


// ************************************************************************* //
