/*--------------------------------*- C++ -*----------------------------------*\
| =========                 |                                                 |
| \\      /  F ield         | OpenFOAM: The Open Source CFD Toolbox           |
|  \\    /   O peration     | Version:  4.x                                   |
|   \\  /    A nd           | Web:      www.OpenFOAM.org                      |
|    \\/     M anipulation  |                                                 |
\*---------------------------------------------------------------------------*/
FoamFile
{
    version     2.0;
    format      ascii;
    class       volScalarField;
    location    "0.05";
    object      p_rgh;
}
// * * * * * * * * * * * * * * * * * * * * * * * * * * * * * * * * * * * * * //

dimensions      [1 -1 -2 0 0 0 0];

internalField   nonuniform List<scalar> 
200
(
2008.78
2003.74
2337.56
2645.4
2851.7
2976.47
3052.09
3110.24
3156.15
3178.16
-531.65
-150.299
85.9681
45.4828
-17.7329
-78.0645
-172.214
-286.253
-351.393
-425.854
2028.89
2042.48
2133.27
2138.07
2099.08
2040.31
1954.14
1827.44
1655.26
1549.13
1826.53
2142.96
2392.71
2433.26
2255.71
1956.35
1603.72
1226.14
864.728
585.235
2892.93
3397.5
3729.01
3676.48
3307.48
2829.4
2361.71
1939.52
1588.97
1342.85
3319.55
4251.59
4752.72
4560.05
3959.19
3286.67
2659.37
2094.05
1608.14
1226.41
3950.56
5857.04
6563.75
5988.34
4990.12
4042.35
3211.89
2496.58
1913.48
1479
3178.25
6807.36
7713.87
6717.24
5431.53
4312.51
3366.87
2578.82
1953.05
1491.46
2320.06
7173.9
8069.1
6933.97
5578.9
4411.8
3432.07
2622.36
1983
1512.45
2076.78
7369.09
8171.13
6986.97
5613.13
4433.55
3445.9
2631.56
1989.44
1517.22
2069.35
7366.47
8169.33
6985.81
5612.36
4433.01
3445.49
2631.23
1989.18
1517.1
2301.49
7168.05
8065.85
6932.11
5577.81
4411.12
3431.56
2621.86
1982.64
1512.5
3155.17
6802.76
7714.71
6719.04
5433.42
4314.27
3368.21
2579.58
1953.79
1493
3951.57
5876.61
6587.33
6007.92
5005.74
4055.11
3221.71
2503.75
1920.78
1489.95
3315.12
4257.78
4764.25
4572.05
3971.18
3297.6
2666.26
2094.63
1604.28
1221.18
2903.5
3409.3
3745.16
3696.12
3331
2854.63
2385.79
1963.48
1622.73
1388.5
1840.02
2155.96
2404.37
2445.97
2270.08
1964.18
1597.2
1203.34
841.212
588.464
2051.02
2071.38
2170.05
2190.81
2172.38
2111.93
2015.56
1860.97
1701
1579.7
-573.979
-198.309
26.9805
-12.9976
-23.216
-81.1749
-185.921
-281.647
-354.649
-434.537
2164
2156.22
2484.59
2792.74
2965.54
3078.64
3150.45
3210.6
3253.88
3269.64
)
;

boundaryField
{
    walls
    {
        type            fixedValue;
        value           uniform 0;
    }
    topInlet
    {
        type            fixedValue;
        value           nonuniform 0();
    }
    bottomInlet
    {
        type            fixedValue;
        value           nonuniform 0();
    }
    outlet
    {
        type            fixedValue;
        value           nonuniform 0();
    }
    frontBack
    {
        type            empty;
    }
    procBoundary1to0
    {
        type            processor;
        value           nonuniform List<scalar> 
20
(
4259.6
-387.253
2511.8
1486.96
2443.08
2392.81
1851.48
645.075
-31.8584
-75.7238
-107.785
-78.7377
603.634
1832.57
2382.25
2468.9
1481.48
2531.41
-419.988
4375.38
)
;
    }
    procBoundary1to2
    {
        type            processor;
        value           nonuniform List<scalar> 
20
(
3162.49
-475.863
1432.91
452.438
1188.4
958.164
1187
1177.54
1192.16
1195.82
1195.75
1192.28
1178.95
1200.29
948.813
1229.67
454.879
1462.45
-470.876
3245.14
)
;
    }
}


// ************************************************************************* //
