/*--------------------------------*- C++ -*----------------------------------*\
| =========                 |                                                 |
| \\      /  F ield         | OpenFOAM: The Open Source CFD Toolbox           |
|  \\    /   O peration     | Version:  4.x                                   |
|   \\  /    A nd           | Web:      www.OpenFOAM.org                      |
|    \\/     M anipulation  |                                                 |
\*---------------------------------------------------------------------------*/
FoamFile
{
    version     2.0;
    format      ascii;
    class       surfaceScalarField;
    location    "0.05";
    object      phi;
}
// * * * * * * * * * * * * * * * * * * * * * * * * * * * * * * * * * * * * * //

dimensions      [0 3 -1 0 0 0 0];

internalField   nonuniform List<scalar> 
370
(
0.00113794
2.2774e-05
0.00110728
2.0703e-05
0.00107605
1.7617e-05
0.00104582
1.22785e-05
0.00101661
6.74295e-06
0.000989152
3.6016e-07
0.000964152
-6.95127e-06
0.000941292
-1.44386e-05
0.000919972
-2.19075e-05
-2.89138e-05
0.0014358
3.80599e-05
0.00141919
3.73103e-05
0.00140195
3.48588e-05
0.00138356
3.06705e-05
0.00136461
2.56917e-05
0.00134455
2.04252e-05
0.00132261
1.49848e-05
0.00129879
9.38016e-06
0.001274
2.88665e-06
-3.42096e-06
0.0015345
4.30734e-05
0.00152917
4.2638e-05
0.00152329
4.07436e-05
0.00151676
3.71968e-05
0.00150972
3.27305e-05
0.00150213
2.80126e-05
0.00149389
2.32344e-05
0.00148486
1.84045e-05
0.00147427
1.3476e-05
8.73036e-06
0.00155048
4.45874e-05
0.00154862
4.44934e-05
0.00154733
4.20413e-05
0.00154647
3.80505e-05
0.00154572
3.34835e-05
0.00154489
2.88437e-05
0.00154382
2.43079e-05
0.00154223
1.99932e-05
0.00153978
1.59198e-05
1.23762e-05
0.00154905
4.62611e-05
0.00154786
4.56875e-05
0.00154784
4.20591e-05
0.00154863
3.72585e-05
0.0015496
3.25134e-05
0.00155048
2.79676e-05
0.00155107
2.37166e-05
0.00155116
1.9903e-05
0.00155056
1.65191e-05
1.36546e-05
0.0015393
4.96194e-05
0.00153681
4.81725e-05
0.00153628
4.25899e-05
0.00153655
3.69901e-05
0.00153682
3.22416e-05
0.00153683
2.79559e-05
0.00153634
2.42099e-05
0.00153515
2.10958e-05
0.00153314
1.8528e-05
1.64966e-05
0.00164283
6.05925e-05
0.00163469
5.63138e-05
0.00163046
4.68155e-05
0.00162716
4.02961e-05
0.00162417
3.52266e-05
0.00162116
3.09675e-05
0.00161779
2.75779e-05
0.00161401
2.48812e-05
0.00160988
2.26522e-05
2.07704e-05
0.000532717
5.48792e-05
0.000547535
4.14959e-05
0.000562666
3.1684e-05
0.000577211
2.5751e-05
0.00059111
2.13283e-05
0.000604027
1.80506e-05
0.000615968
1.56362e-05
0.000627046
1.38037e-05
0.000637342
1.23562e-05
1.11677e-05
0.000167753
2.64418e-05
0.000193535
1.57139e-05
0.000213426
1.17923e-05
0.000229698
9.47903e-06
0.000243214
7.81229e-06
0.00025462
6.64479e-06
0.000264435
5.82171e-06
0.000273013
5.22534e-06
0.000280597
4.77228e-06
4.39152e-06
6.81279e-05
4.88701e-07
8.32626e-05
5.79271e-07
9.43984e-05
6.56423e-07
0.000103166
7.1116e-07
0.000110218
7.60914e-07
0.000116052
8.1097e-07
0.000121006
8.67246e-07
0.000125293
9.38071e-07
0.000129053
1.01226e-06
1.05398e-06
6.80129e-05
-2.55487e-05
8.31632e-05
-1.4571e-05
9.43148e-05
-1.04952e-05
0.000103095
-8.06893e-06
0.000110155
-6.29957e-06
0.000115996
-5.02996e-06
0.000120956
-4.09291e-06
0.000125248
-3.35381e-06
0.000129012
-2.75175e-06
-2.28731e-06
0.000166567
-5.42634e-05
0.000192536
-4.05394e-05
0.000212582
-3.0542e-05
0.000228977
-2.4464e-05
0.000242589
-1.99109e-05
0.00025407
-1.65112e-05
0.000263945
-1.39679e-05
0.000272573
-1.19813e-05
0.000280199
-1.03778e-05
-9.10225e-06
0.000527871
-6.03804e-05
0.000543205
-5.58736e-05
0.000558778
-4.6115e-05
0.000573706
-3.93926e-05
0.000587938
-3.41426e-05
0.000601145
-2.97179e-05
0.000613338
-2.61614e-05
0.000624634
-2.32769e-05
0.000635126
-2.08704e-05
-1.88939e-05
0.00163871
-4.90999e-05
0.00163034
-4.75004e-05
0.00162595
-4.17208e-05
0.00162249
-3.59384e-05
0.00161938
-3.10278e-05
0.00161625
-2.65923e-05
0.00161278
-2.26876e-05
0.00160889
-1.93861e-05
0.00160467
-1.66529e-05
-1.45767e-05
0.00153869
-4.56293e-05
0.00153611
-4.49173e-05
0.0015355
-4.11093e-05
0.00153568
-3.61234e-05
0.00153587
-3.12149e-05
0.00153579
-2.65175e-05
0.0015352
-2.20959e-05
0.00153388
-1.80645e-05
0.00153172
-1.44876e-05
-1.15799e-05
0.00154889
-4.38929e-05
0.00154766
-4.3691e-05
0.00154762
-4.1066e-05
0.00154838
-3.68909e-05
0.00154934
-3.21726e-05
0.00155021
-2.7388e-05
0.00155079
-2.26695e-05
0.00155081
-1.80903e-05
0.00155014
-1.38194e-05
-1.02815e-05
0.00155032
-4.23832e-05
0.00154844
-4.18098e-05
0.00154712
-3.97523e-05
0.00154626
-3.60302e-05
0.00154554
-3.14523e-05
0.00154477
-2.66127e-05
0.00154376
-2.16581e-05
0.00154217
-1.65035e-05
0.00153963
-1.1281e-05
-6.67384e-06
0.00153416
-3.73138e-05
0.00152878
-3.64237e-05
0.00152281
-3.37861e-05
0.00151621
-2.94257e-05
0.00150919
-2.44387e-05
0.00150163
-1.90444e-05
0.00149349
-1.35246e-05
0.00148441
-7.41961e-06
0.00147385
-7.19191e-07
5.73198e-06
0.00143434
-2.20144e-05
0.00141777
-1.98582e-05
0.00140056
-1.65746e-05
0.001382
-1.08617e-05
0.00136309
-5.53411e-06
0.00134286
1.18605e-06
0.00132066
8.6788e-06
0.00129683
1.64104e-05
0.00127213
2.3977e-05
3.1e-05
0.00113565
0.00110497
0.00107379
0.00104378
0.00101466
0.000987548
0.000962939
0.00094049
0.000919491
)
;

boundaryField
{
    walls
    {
        type            calculated;
        value           nonuniform List<scalar> 
20
(
8.53166e-06
9.96234e-06
1.36073e-05
1.79544e-05
2.24647e-05
2.71018e-05
3.19508e-05
3.72994e-05
4.32272e-05
4.95828e-05
9.28154e-06
1.08259e-05
1.46059e-05
1.91415e-05
2.35899e-05
2.82983e-05
3.32884e-05
3.88594e-05
4.49758e-05
5.1478e-05
)
;
    }
    topInlet
    {
        type            calculated;
        value           nonuniform 0();
    }
    bottomInlet
    {
        type            calculated;
        value           nonuniform 0();
    }
    outlet
    {
        type            calculated;
        value           nonuniform 0();
    }
    frontBack
    {
        type            empty;
        value           nonuniform 0();
    }
    procBoundary1to0
    {
        type            processor;
        value           nonuniform List<scalar> 
20
(
-0.00116925
-0.00145109
-0.00153951
-0.00155199
-0.00155072
-0.00154266
-0.0016538
-0.000527003
-0.000139316
-4.21748e-05
-4.19755e-05
-0.000137852
-0.000521754
-0.00165
-0.00154216
-0.00155062
-0.00155183
-0.00153923
-0.00144964
-0.00116695
)
;
    }
    procBoundary1to2
    {
        type            processor;
        value           nonuniform List<scalar> 
20
(
0.000899303
0.0012485
0.00146212
0.00153614
0.00154928
0.0015303
0.00160561
0.000646944
0.000287373
0.000132391
0.000132354
0.000287014
0.000644918
0.00160035
0.00152872
0.00154884
0.00153602
0.00146144
0.00124686
0.000899013
)
;
    }
}


// ************************************************************************* //
