/*--------------------------------*- C++ -*----------------------------------*\
| =========                 |                                                 |
| \\      /  F ield         | OpenFOAM: The Open Source CFD Toolbox           |
|  \\    /   O peration     | Version:  4.x                                   |
|   \\  /    A nd           | Web:      www.OpenFOAM.org                      |
|    \\/     M anipulation  |                                                 |
\*---------------------------------------------------------------------------*/
FoamFile
{
    version     2.0;
    format      ascii;
    class       volVectorField;
    location    "0.05";
    object      U;
}
// * * * * * * * * * * * * * * * * * * * * * * * * * * * * * * * * * * * * * //

dimensions      [0 1 -1 0 0 0 0];

internalField   nonuniform List<vector> 
200
(
(14.7834 -0.418621 0)
(14.3738 -0.421265 0)
(13.9615 -0.452374 0)
(13.5653 -0.500415 0)
(13.1854 -0.559206 0)
(12.8182 -0.623262 0)
(12.4845 -0.68008 0)
(12.1808 -0.725438 0)
(11.9011 -0.761251 0)
(11.6358 -0.785251 0)
(18.4887 0.737115 0)
(18.272 0.657158 0)
(18.0487 0.583729 0)
(17.8217 0.520137 0)
(17.5838 0.464464 0)
(17.3376 0.415138 0)
(17.0675 0.368459 0)
(16.7737 0.327758 0)
(16.4598 0.29769 0)
(16.1361 0.273714 0)
(19.6776 0.31673 0)
(19.611 0.270875 0)
(19.5353 0.216153 0)
(19.455 0.150023 0)
(19.3686 0.0800571 0)
(19.2752 0.0129654 0)
(19.174 -0.0481861 0)
(19.0633 -0.100468 0)
(18.94 -0.139156 0)
(18.7955 -0.166396 0)
(19.8597 0.599308 0)
(19.8339 0.541803 0)
(19.812 0.471437 0)
(19.7976 0.397012 0)
(19.7884 0.329359 0)
(19.7796 0.274365 0)
(19.7682 0.233036 0)
(19.7518 0.203665 0)
(19.7269 0.18206 0)
(19.6889 0.167545 0)
(19.8426 0.487986 0)
(19.8192 0.430839 0)
(19.8082 0.357679 0)
(19.813 0.283874 0)
(19.8268 0.218448 0)
(19.841 0.162413 0)
(19.8514 0.114246 0)
(19.8562 0.0720699 0)
(19.8533 0.0343248 0)
(19.8414 0.00143755 0)
(19.7333 0.573866 0)
(19.6838 0.4981 0)
(19.6594 0.402746 0)
(19.6593 0.316451 0)
(19.6677 0.246456 0)
(19.6727 0.190179 0)
(19.6704 0.146044 0)
(19.6597 0.113303 0)
(19.6393 0.0909066 0)
(19.6081 0.078108 0)
(18.7938 0.629585 0)
(18.6521 0.541967 0)
(18.5732 0.42882 0)
(18.5384 0.337535 0)
(18.5126 0.267935 0)
(18.482 0.213611 0)
(18.4456 0.171572 0)
(18.4045 0.139166 0)
(18.3592 0.113364 0)
(18.3109 0.0917228 0)
(13.0215 0.763612 0)
(13.2506 0.613377 0)
(13.5972 0.456012 0)
(13.9857 0.343971 0)
(14.3496 0.262418 0)
(14.6793 0.202254 0)
(14.9824 0.158275 0)
(15.2635 0.125757 0)
(15.5249 0.101071 0)
(15.768 0.0819845 0)
(8.29032 0.54801 0)
(9.66022 0.345464 0)
(10.8099 0.226413 0)
(11.7707 0.160009 0)
(12.5519 0.116651 0)
(13.2 0.0875351 0)
(13.7527 0.0676318 0)
(14.2333 0.0534769 0)
(14.6565 0.042981 0)
(15.0326 0.0349065 0)
(6.89166 0.191287 0)
(8.79933 0.0937986 0)
(10.2169 0.060434 0)
(11.3323 0.043578 0)
(12.2139 0.0326213 0)
(12.9323 0.0253037 0)
(13.5365 0.0202971 0)
(14.0561 0.0167429 0)
(14.5095 0.014075 0)
(14.9097 0.0118744 0)
(6.87771 -0.18056 0)
(8.78705 -0.0819118 0)
(10.2066 -0.0483314 0)
(11.3236 -0.0317733 0)
(12.2064 -0.0212649 0)
(12.9257 -0.0144334 0)
(13.5306 -0.00986298 0)
(14.0508 -0.00661596 0)
(14.5046 -0.00427276 0)
(14.9053 -0.00272184 0)
(8.22325 -0.537578 0)
(9.60287 -0.332978 0)
(10.7618 -0.213827 0)
(11.7299 -0.147854 0)
(12.5168 -0.105024 0)
(13.1692 -0.0764558 0)
(13.7255 -0.0570325 0)
(14.2089 -0.0432172 0)
(14.6344 -0.0330779 0)
(15.0127 -0.0256863 0)
(12.8983 -0.761436 0)
(13.1385 -0.608183 0)
(13.4964 -0.448728 0)
(13.8954 -0.335584 0)
(14.2682 -0.253475 0)
(14.6055 -0.193112 0)
(14.9151 -0.149097 0)
(15.202 -0.11656 0)
(15.4683 -0.092016 0)
(15.7162 -0.0735353 0)
(18.7491 -0.623522 0)
(18.6035 -0.535454 0)
(18.5223 -0.421507 0)
(18.4859 -0.329643 0)
(18.4587 -0.259725 0)
(18.4267 -0.205258 0)
(18.3891 -0.163078 0)
(18.3468 -0.130366 0)
(18.3003 -0.104164 0)
(18.2512 -0.0822328 0)
(19.7265 -0.569374 0)
(19.6754 -0.492344 0)
(19.6497 -0.395563 0)
(19.6487 -0.308229 0)
(19.6561 -0.237719 0)
(19.6599 -0.18132 0)
(19.6565 -0.137317 0)
(19.6443 -0.104978 0)
(19.6221 -0.0836962 0)
(19.5889 -0.0727683 0)
(19.841 -0.476756 0)
(19.817 -0.419625 0)
(19.8054 -0.346085 0)
(19.8099 -0.271909 0)
(19.8235 -0.206308 0)
(19.8376 -0.150011 0)
(19.8479 -0.101204 0)
(19.8523 -0.0579034 0)
(19.8485 -0.0193475 0)
(19.8359 0.0124509 0)
(19.8575 -0.595085 0)
(19.8315 -0.537013 0)
(19.8095 -0.466062 0)
(19.795 -0.391465 0)
(19.7858 -0.324468 0)
(19.7776 -0.270239 0)
(19.767 -0.229488 0)
(19.7512 -0.199534 0)
(19.7259 -0.177712 0)
(19.6872 -0.161327 0)
(19.6738 -0.302537 0)
(19.6063 -0.255364 0)
(19.5298 -0.198901 0)
(19.4485 -0.130868 0)
(19.3615 -0.0608769 0)
(19.2684 0.00593638 0)
(19.1679 0.0666197 0)
(19.0581 0.116574 0)
(18.9352 0.153315 0)
(18.7882 0.180142 0)
(18.47 -0.740588 0)
(18.2534 -0.66161 0)
(18.0306 -0.588976 0)
(17.8033 -0.525959 0)
(17.5645 -0.468553 0)
(17.3167 -0.416682 0)
(17.0441 -0.367832 0)
(16.7483 -0.327046 0)
(16.434 -0.29629 0)
(16.1139 -0.271961 0)
(14.754 0.449808 0)
(14.344 0.452596 0)
(13.932 0.483467 0)
(13.538 0.531507 0)
(13.1589 0.591427 0)
(12.7954 0.655159 0)
(12.4666 0.710272 0)
(12.1683 0.75519 0)
(11.8933 0.789693 0)
(11.6314 0.811657 0)
)
;

boundaryField
{
    walls
    {
        type            noSlip;
    }
    topInlet
    {
        type            fixedValue;
        value           nonuniform 0();
    }
    bottomInlet
    {
        type            fixedValue;
        value           nonuniform 0();
    }
    outlet
    {
        type            zeroGradient;
    }
    frontBack
    {
        type            empty;
    }
    procBoundary1to0
    {
        type            processor;
        value           nonuniform List<vector> 
20
(
(15.0929 -0.43804 1.46134e-24)
(18.6771 0.816266 -6.09959e-25)
(19.722 0.356792 5.06158e-27)
(19.8832 0.639102 1.94567e-27)
(19.8651 0.521878 0)
(19.7856 0.606289 2.09435e-25)
(18.9594 0.621276 1.4303e-24)
(12.8621 0.686541 1.21176e-24)
(6.02299 0.483237 -5.70763e-29)
(1.73177 0.175419 -4.26461e-29)
(1.6966 -0.167624 4.25327e-29)
(5.9319 -0.474581 5.52415e-29)
(12.7269 -0.68419 1.24064e-24)
(18.9194 -0.614228 1.47057e-24)
(19.7803 -0.60219 2.1474e-25)
(19.8636 -0.51007 0)
(19.8817 -0.63543 -2.34577e-27)
(19.7189 -0.343724 -5.29069e-27)
(18.6585 -0.81857 -6.49991e-25)
(15.0646 0.468998 2.9471e-24)
)
;
    }
    procBoundary1to2
    {
        type            processor;
        value           nonuniform List<vector> 
20
(
(11.3712 -0.797845 0)
(15.8076 0.255335 0)
(18.6247 -0.188403 0)
(19.6363 0.154059 0)
(19.8208 -0.0227929 0)
(19.5667 0.0731796 0)
(18.2625 0.072988 0)
(15.9955 0.0673748 0)
(15.3709 0.0286871 0)
(15.2674 0.0100775 0)
(15.2634 -0.00169108 0)
(15.3529 -0.020259 0)
(15.9482 -0.0597422 0)
(18.2025 -0.0631511 0)
(19.5454 -0.0693942 0)
(19.815 0.0352443 0)
(19.6343 -0.146446 0)
(18.6148 0.200721 0)
(15.7888 -0.253033 0)
(11.368 0.823311 0)
)
;
    }
}


// ************************************************************************* //
