/*--------------------------------*- C++ -*----------------------------------*\
| =========                 |                                                 |
| \\      /  F ield         | OpenFOAM: The Open Source CFD Toolbox           |
|  \\    /   O peration     | Version:  4.x                                   |
|   \\  /    A nd           | Web:      www.OpenFOAM.org                      |
|    \\/     M anipulation  |                                                 |
\*---------------------------------------------------------------------------*/
FoamFile
{
    version     2.0;
    format      ascii;
    class       surfaceScalarField;
    location    "0.05";
    object      alphaPhi;
}
// * * * * * * * * * * * * * * * * * * * * * * * * * * * * * * * * * * * * * //

dimensions      [0 3 -1 0 0 0 0];

internalField   nonuniform List<scalar> 
360
(
0
0
0
0
0
0
0
0
1.31812e-174
1.17565e-176
9.41393e-162
4.34825e-164
4.34394e-153
1.43485e-156
1.01753e-119
-1.28538e-130
4.28972e-110
-7.16552e-121
-6.57638e-113
0
0
0
0
0
0
0
0
8.82236e-176
1.27989e-177
2.93081e-163
3.2603e-165
8.9074e-156
7.29751e-158
4.22992e-128
2.42588e-130
1.15728e-118
3.46248e-121
2.85482e-114
0
0
0
0
0
0
0
0
8.45886e-177
1.27737e-178
1.90207e-164
2.26274e-166
3.85346e-157
3.50639e-159
6.23721e-129
4.12361e-131
7.94567e-120
3.20316e-122
7.66482e-116
0
0
0
0
0
0
0
0
8.44601e-178
1.21482e-179
1.30956e-165
1.46198e-167
1.82405e-158
1.53305e-160
8.84466e-130
5.37892e-132
6.06443e-121
2.54922e-123
3.47021e-117
0
0
0
0
0
0
0
0
8.19779e-179
1.1053e-180
8.59896e-167
8.94893e-169
8.08417e-160
6.31159e-162
1.10823e-130
6.31273e-133
4.61538e-122
2.02637e-124
2.19358e-118
0
0
0
0
0
0
0
0
7.65201e-180
9.68067e-182
5.37431e-168
5.34221e-170
3.39209e-161
2.55559e-163
1.231e-131
6.81932e-134
3.47507e-123
1.73515e-125
2.45659e-119
0
0
0
0
0
0
0
0
7.34511e-181
1.07359e-182
3.52214e-169
4.77525e-171
1.52524e-162
1.87153e-164
1.81094e-132
1.96077e-134
4.24725e-124
4.66022e-126
1.02341e-119
0
0
0
0
0
0
0
0
9.91315e-181
9.04134e-182
1.61524e-168
1.44726e-169
1.86176e-160
1.60634e-161
1.50219e-127
1.19652e-128
6.95786e-119
4.66992e-120
4.57613e-113
0
0
0
0
0
0
0
0
3.5601e-171
1.70567e-171
4.11636e-158
1.9211e-158
1.04118e-149
4.74258e-150
7.1845e-117
3.11578e-117
2.92729e-108
1.02638e-108
7.05006e-102
0
0
0
0
8.885e-170
2.41147e-156
9.55825e-148
1.13958e-114
6.97914e-105
7.04472e-05
-0.000158745
4.49237e-05
-0.000134879
3.40074e-05
-0.000103928
2.82086e-05
-8.5069e-05
2.46696e-05
-7.38607e-05
2.21416e-05
-6.64052e-05
2.00319e-05
-6.01053e-05
1.80298e-05
-5.30753e-05
1.61e-05
-4.07678e-05
-2.33871e-05
0.000279032
-6.75452e-05
0.000223887
-7.97336e-05
0.000189918
-6.99597e-05
0.000167711
-6.28612e-05
0.000152412
-5.85625e-05
0.000140628
-5.46205e-05
0.000130475
-4.9953e-05
0.000121286
-4.38861e-05
0.000116088
-3.55696e-05
-4.51515e-05
0.000778392
-4.68826e-05
0.00074094
-4.22811e-05
0.000706506
-3.55261e-05
0.00067149
-2.78448e-05
0.000637393
-2.44655e-05
0.000605347
-2.25748e-05
0.000575654
-2.02592e-05
0.000549465
-1.76977e-05
0.000531818
-1.79226e-05
-3.5087e-05
0.00173007
-5.05507e-05
0.00172577
-3.79839e-05
0.00172187
-3.16285e-05
0.00171837
-2.43441e-05
0.00171258
-1.8676e-05
0.00170445
-1.44445e-05
0.00169488
-1.06825e-05
0.00168476
-7.57689e-06
0.00167363
-6.79982e-06
-1.14492e-05
0.00154247
-5.2528e-05
0.00154413
-3.964e-05
0.00154475
-3.22553e-05
0.00154622
-2.58085e-05
0.00154755
-2.00126e-05
0.00154831
-1.52036e-05
0.00154877
-1.11383e-05
0.00154904
-7.8474e-06
0.00154808
-5.84207e-06
-5.5298e-06
0.001545
-5.36942e-05
0.00154658
-4.12154e-05
0.00154749
-3.31676e-05
0.00154877
-2.70904e-05
0.00155023
-2.14686e-05
0.00155145
-1.6429e-05
0.00155242
-1.21014e-05
0.00155302
-8.452e-06
0.00155273
-5.55565e-06
-3.41687e-06
0.00154775
-5.4672e-05
0.00154885
-4.23089e-05
0.00154953
-3.38467e-05
0.00155043
-2.79939e-05
0.00155155
-2.25917e-05
0.0015527
-1.75738e-05
0.00155378
-1.31843e-05
0.00155456
-9.2294e-06
0.00155408
-5.07911e-06
-1.16609e-06
0.00155061
-5.59049e-05
0.00155057
-4.22686e-05
0.00154995
-3.32261e-05
0.00154903
-2.70769e-05
0.00154763
-2.11856e-05
0.00154596
-1.59121e-05
0.00154422
-1.14364e-05
0.00154245
-7.46378e-06
0.00154075
-3.37403e-06
3.4699e-07
0.00154854
-5.32494e-05
0.00154115
-3.48779e-05
0.00153349
-2.55732e-05
0.00152472
-1.82993e-05
0.00151424
-1.07071e-05
0.00150317
-4.84505e-06
0.00149105
6.80742e-07
0.0014779
5.68868e-06
0.00146428
1.02496e-05
1.49897e-05
0.00147754
0.00142081
0.00137308
0.00133048
0.00129292
0.00125935
0.00122984
0.00120424
0.00118256
)
;

boundaryField
{
    walls
    {
        type            calculated;
        value           nonuniform List<scalar> 
40
(
0
0
0
0
2.74023e-169
7.37684e-156
2.91745e-147
3.42809e-114
1.83753e-104
-3.10306e-93
0
0
0
0
2.62506e-176
2.06393e-163
1.02739e-154
2.5497e-121
1.11743e-111
7.38854e-104
0.000262544
0.000160403
0.000114844
9.08679e-05
7.73997e-05
6.89331e-05
6.2215e-05
5.50775e-05
4.26975e-05
-2.48841e-06
2.22536e-05
2.18564e-05
2.2155e-05
2.42974e-05
2.68568e-05
2.87217e-05
3.01919e-05
3.12937e-05
3.1925e-05
3.06025e-05
)
;
    }
    topInlet
    {
        type            calculated;
        value           nonuniform List<scalar> 10(-0.000174246 -0.000370232 -0.000799055 -0.0017264 -0.00154049 -0.00154384 -0.00154677 -0.00154938 -0.00155119 -0.00155305);
    }
    bottomInlet
    {
        type            calculated;
        value           uniform 0;
    }
    outlet
    {
        type            calculated;
        value           nonuniform 0();
    }
    frontBack
    {
        type            empty;
        value           nonuniform 0();
    }
    procBoundary0to1
    {
        type            processor;
        value           nonuniform List<scalar> 
20
(
2.92745e-102
6.83369e-111
5.79197e-113
1.27126e-114
5.32209e-116
3.11822e-117
4.8161e-118
5.30679e-112
4.0967e-101
7.45262e-92
4.19755e-05
0.000137852
0.000521754
0.00165
0.00154216
0.00155062
0.00155183
0.00153923
0.00144964
0.00116695
)
;
    }
}


// ************************************************************************* //
