/*--------------------------------*- C++ -*----------------------------------*\
| =========                 |                                                 |
| \\      /  F ield         | OpenFOAM: The Open Source CFD Toolbox           |
|  \\    /   O peration     | Version:  4.x                                   |
|   \\  /    A nd           | Web:      www.OpenFOAM.org                      |
|    \\/     M anipulation  |                                                 |
\*---------------------------------------------------------------------------*/
FoamFile
{
    version     2.0;
    format      ascii;
    class       volScalarField;
    location    "0.05";
    object      epsilon;
}
// * * * * * * * * * * * * * * * * * * * * * * * * * * * * * * * * * * * * * //

dimensions      [0 2 -3 0 0 0 0];

internalField   nonuniform List<scalar> 
200
(
3069.04
9326.78
16723.9
23561
28990.3
32829.5
35257.9
36489.4
36883.6
36789.7
183.931
571.177
1117.83
1719.9
2267.86
2726.07
3071.22
3365.93
3604.01
3785.65
24.7412
50.7738
92.3224
144.135
197.437
246.427
287.937
322.671
349.912
370.904
15.3126
17.0273
20.3338
25.1765
31.047
37.3235
43.4812
49.1753
54.0784
58.101
14.843
15.0323
15.5025
16.2336
17.1699
18.2382
19.3672
20.4962
21.5747
22.5872
18.4317
23.5935
28.5135
32.4679
35.3459
37.2752
38.4442
39.0245
39.1449
38.9326
153.615
244.113
270.448
262.666
242.279
219.636
198.663
180.342
164.393
149.398
6625.4
7180.49
6262.71
5410.89
4796.46
4353.75
4009.28
3713.92
3428.91
3038.39
256436
198127
136810
103098
84289.7
72468.9
63787.1
56479.3
49615.7
41188.8
3.28103e+06
1.86524e+06
1.11436e+06
783055
613181
509982
435090
372459
313931
248168
3.32499e+06
1.87461e+06
1.11661e+06
783937
613642
509915
434301
370890
311837
246766
262867
201627
138747
104435
85344.6
73324.7
64457.1
56966.7
49944.2
41466.4
6873.3
7421.08
6455.47
5569.32
4932.55
4473.59
4115.41
3807.21
3509.68
3106.73
160.544
253.44
278.747
269.121
247.161
223.42
201.734
182.958
166.712
151.503
18.6697
24.1131
29.2473
33.3312
36.2705
38.2141
39.3678
39.9148
39.991
39.7304
14.8597
15.0773
15.5871
16.3641
17.3479
18.4611
19.6296
20.7904
21.8926
22.9264
15.3561
17.1743
20.6358
25.6612
31.7188
38.1594
44.4497
50.2252
55.1505
59.2313
25.3227
52.6545
95.8844
149.334
204.101
254.133
296.567
331.825
359.475
381.377
193.006
598.741
1167.65
1789.09
2353.82
2821.64
3179.17
3486.89
3732.48
3917.45
3217.16
9767.62
17466.4
24534.3
30104
34007.3
36432.4
37622.1
37969.7
37836.6
)
;

boundaryField
{
    walls
    {
        Cmu             0.09;
        kappa           0.41;
        E               9.8;
        type            epsilonWallFunction;
        value           nonuniform List<scalar> 
40
(
3.28103e+06
1.86524e+06
1.11436e+06
783055
613181
509982
435090
372459
313931
248168
3069.04
9326.78
16723.9
23561
28990.3
32829.5
35257.9
36489.4
36883.6
36789.7
3.32499e+06
1.87461e+06
1.11661e+06
783937
613642
509915
434301
370890
311837
246766
3217.16
9767.62
17466.4
24534.3
30104
34007.3
36432.4
37622.1
37969.7
37836.6
)
;
    }
    topInlet
    {
        type            fixedValue;
        value           uniform 14.855;
    }
    bottomInlet
    {
        type            fixedValue;
        value           uniform 14.855;
    }
    outlet
    {
        type            zeroGradient;
    }
    frontBack
    {
        type            empty;
    }
    procBoundary0to1
    {
        type            processor;
        value           nonuniform List<scalar> 
20
(
36716.4
4241.93
464.134
71.3297
24.6154
38.1986
126.771
1628.05
9568.07
21234.9
21133.7
9572.48
1654.63
128.226
38.9457
24.9914
72.743
476.624
4372.78
37756.9
)
;
    }
}


// ************************************************************************* //
