/*--------------------------------*- C++ -*----------------------------------*\
| =========                 |                                                 |
| \\      /  F ield         | OpenFOAM: The Open Source CFD Toolbox           |
|  \\    /   O peration     | Version:  4.x                                   |
|   \\  /    A nd           | Web:      www.OpenFOAM.org                      |
|    \\/     M anipulation  |                                                 |
\*---------------------------------------------------------------------------*/
FoamFile
{
    version     2.0;
    format      ascii;
    class       volScalarField;
    location    "0.05";
    object      k;
}
// * * * * * * * * * * * * * * * * * * * * * * * * * * * * * * * * * * * * * //

dimensions      [0 2 -2 0 0 0 0];

internalField   nonuniform List<scalar> 
200
(
5.23229
10.9774
16.2017
20.3605
23.3785
25.3989
26.6359
27.2519
27.4472
27.4
0.647879
1.1306
1.73778
2.37812
2.96615
3.47786
3.89528
4.26617
4.58598
4.8531
0.387183
0.415351
0.456969
0.508179
0.562689
0.616463
0.666911
0.714223
0.756608
0.794511
0.373385
0.372106
0.371789
0.372181
0.372802
0.37321
0.373125
0.372424
0.370929
0.368667
0.372821
0.369316
0.365567
0.361554
0.357258
0.352634
0.347653
0.342307
0.336597
0.330598
0.371391
0.364377
0.355468
0.345141
0.333889
0.322122
0.310157
0.298221
0.28649
0.275361
0.351263
0.312017
0.269822
0.23127
0.198631
0.171982
0.150564
0.133505
0.120122
0.109995
0.814158
1.00669
1.03812
1.01785
0.984752
0.95102
0.919965
0.891727
0.863483
0.811068
16.7145
15.8877
12.9721
10.9268
9.62484
8.74446
8.07043
7.48682
6.92548
6.14168
127.374
87.4082
62.0017
49.0046
41.6318
36.8179
33.1181
29.8576
26.6409
22.7762
128.509
87.7008
62.0851
49.0414
41.6527
36.8147
33.078
29.7737
26.5223
22.6903
17.0373
16.1102
13.1181
11.0385
9.7194
8.82627
8.13941
7.54214
6.96783
6.17791
0.835634
1.03462
1.06571
1.04379
1.00896
0.97365
0.941176
0.911601
0.88194
0.82736
0.350473
0.31019
0.267282
0.228436
0.195823
0.169392
0.148291
0.131592
0.118581
0.108799
0.371363
0.364172
0.355016
0.344409
0.332869
0.320826
0.308603
0.296435
0.284502
0.273212
0.372888
0.369378
0.365603
0.361542
0.357181
0.352475
0.347397
0.341942
0.336109
0.329985
0.373474
0.372274
0.372039
0.372501
0.373179
0.373621
0.37355
0.372826
0.371262
0.369007
0.387854
0.417191
0.460185
0.512769
0.568684
0.623673
0.675395
0.72361
0.766867
0.80637
0.659283
1.15946
1.78499
2.44023
3.04147
3.56123
3.98951
4.37208
4.69967
4.97098
5.39931
11.3207
16.6778
20.9175
23.9735
26.0028
27.2241
27.813
27.9834
27.9173
)
;

boundaryField
{
    walls
    {
        type            kqRWallFunction;
        value           nonuniform List<scalar> 
40
(
127.374
87.4082
62.0017
49.0046
41.6318
36.8179
33.1181
29.8576
26.6409
22.7762
5.23229
10.9774
16.2017
20.3605
23.3785
25.3989
26.6359
27.2519
27.4472
27.4
128.509
87.7008
62.0851
49.0414
41.6527
36.8147
33.078
29.7737
26.5223
22.6903
5.39931
11.3207
16.6778
20.9175
23.9735
26.0028
27.2241
27.813
27.9834
27.9173
)
;
    }
    topInlet
    {
        type            fixedValue;
        value           uniform 0.375;
    }
    bottomInlet
    {
        type            fixedValue;
        value           uniform 0.375;
    }
    outlet
    {
        type            zeroGradient;
    }
    frontBack
    {
        type            empty;
    }
    procBoundary0to1
    {
        type            processor;
        value           nonuniform List<scalar> 
20
(
27.3646
5.28183
0.917172
0.38102
0.327826
0.269723
0.106006
0.552851
2.04618
3.27754
3.26813
2.04661
0.56101
0.104861
0.267524
0.327158
0.381664
0.931238
5.39793
27.8791
)
;
    }
}


// ************************************************************************* //
