/*--------------------------------*- C++ -*----------------------------------*\
| =========                 |                                                 |
| \\      /  F ield         | OpenFOAM: The Open Source CFD Toolbox           |
|  \\    /   O peration     | Version:  4.x                                   |
|   \\  /    A nd           | Web:      www.OpenFOAM.org                      |
|    \\/     M anipulation  |                                                 |
\*---------------------------------------------------------------------------*/
FoamFile
{
    version     2.0;
    format      ascii;
    class       volScalarField;
    location    "0.05";
    object      nut;
}
// * * * * * * * * * * * * * * * * * * * * * * * * * * * * * * * * * * * * * //

dimensions      [0 2 -1 0 0 0 0];

internalField   nonuniform List<scalar> 
200
(
0.000802828
0.00116282
0.00141263
0.00158353
0.00169678
0.00176852
0.00181101
0.00183176
0.00183825
0.00183661
0.000205388
0.000201413
0.000243141
0.000295944
0.00034915
0.000399327
0.000444641
0.000486646
0.000525195
0.000559937
0.000545324
0.000305798
0.000203568
0.000161253
0.000144328
0.000138793
0.000139021
0.000142282
0.00014724
0.000153172
0.000819425
0.00073186
0.000611809
0.00049517
0.000402884
0.000335866
0.00028817
0.000253847
0.000228981
0.000210537
0.000842796
0.000816608
0.000775841
0.000724726
0.000669021
0.000613634
0.000561652
0.000514519
0.000472627
0.000435493
0.000673503
0.000506469
0.000398834
0.000330203
0.000283861
0.000250532
0.000225203
0.000205108
0.000188707
0.00017528
7.22893e-05
3.58929e-05
2.42279e-05
1.83263e-05
1.46562e-05
1.212e-05
1.02699e-05
8.8949e-06
7.89959e-06
7.28854e-06
9.00424e-06
1.27023e-05
1.54871e-05
1.72321e-05
1.8196e-05
1.86964e-05
1.89985e-05
1.92696e-05
1.95702e-05
1.94856e-05
9.80503e-05
0.000114662
0.0001107
0.000104227
9.89134e-05
9.49635e-05
9.18973e-05
8.93199e-05
8.70006e-05
8.24209e-05
0.000445031
0.000368648
0.000310472
0.00027601
0.000254392
0.000239225
0.000226879
0.000215414
0.000203473
0.00018813
0.00044701
0.000369265
0.000310681
0.000276114
0.000254456
0.000239214
0.000226742
0.000215111
0.000203019
0.000187775
9.93824e-05
0.000115849
0.000111625
0.000105007
9.96197e-05
9.56195e-05
9.25033e-05
8.98693e-05
8.74887e-05
8.28379e-05
9.14343e-06
1.29818e-05
1.58341e-05
1.76062e-05
1.85745e-05
1.90718e-05
1.93719e-05
1.96447e-05
1.99459e-05
1.98302e-05
6.88584e-05
3.41682e-05
2.3066e-05
1.74512e-05
1.39634e-05
1.15587e-05
9.81049e-06
8.51821e-06
7.59112e-06
7.03186e-06
0.00066482
0.000494998
0.00038784
0.000320288
0.00027494
0.000242413
0.000217722
0.000198138
0.000182159
0.000169091
0.000842151
0.000814442
0.000771782
0.000718902
0.000661872
0.000605678
0.00055333
0.000506156
0.000464414
0.00042746
0.000817489
0.000726255
0.000603668
0.000486655
0.000395149
0.000329233
0.000282534
0.000249077
0.000224934
0.000206899
0.000534649
0.000297493
0.000198774
0.000158463
0.000142607
0.000137751
0.000138432
0.000142017
0.000147236
0.000153446
0.000202682
0.000202075
0.000245583
0.000299551
0.0003537
0.00040452
0.000450577
0.000493379
0.000532574
0.000567705
0.000815541
0.00118086
0.00143323
0.00160504
0.00171824
0.00178942
0.00183089
0.00185053
0.00185612
0.00185386
)
;

boundaryField
{
    walls
    {
        type            nutkWallFunction;
        Cmu             0.09;
        kappa           0.41;
        E               9.8;
        value           uniform 0;
    }
    topInlet
    {
        type            calculated;
        value           uniform 0.000851986;
    }
    bottomInlet
    {
        type            calculated;
        value           uniform 0.000851986;
    }
    outlet
    {
        type            calculated;
        value           nonuniform 0();
    }
    frontBack
    {
        type            empty;
    }
    procBoundary0to1
    {
        type            processor;
        value           nonuniform List<scalar> 
20
(
0.00183552
0.000591899
0.000163117
0.000183176
0.000392938
0.000171408
7.97786e-06
1.68962e-05
3.93827e-05
4.55291e-05
4.54849e-05
3.93812e-05
1.71192e-05
7.71781e-06
0.000165389
0.000385449
0.000180225
0.000163753
0.000599707
0.0018527
)
;
    }
}


// ************************************************************************* //
