/*--------------------------------*- C++ -*----------------------------------*\
| =========                 |                                                 |
| \\      /  F ield         | OpenFOAM: The Open Source CFD Toolbox           |
|  \\    /   O peration     | Version:  4.x                                   |
|   \\  /    A nd           | Web:      www.OpenFOAM.org                      |
|    \\/     M anipulation  |                                                 |
\*---------------------------------------------------------------------------*/
FoamFile
{
    version     2.0;
    format      ascii;
    class       volScalarField;
    location    "0.05";
    object      p;
}
// * * * * * * * * * * * * * * * * * * * * * * * * * * * * * * * * * * * * * //

dimensions      [1 -1 -2 0 0 0 0];

internalField   nonuniform List<scalar> 
200
(
3559.81
3410.54
3422.69
3703.48
4063.56
4307.6
4493.26
4626.68
4695.49
4492
4286.01
4077.66
2527.21
1607.82
1056.66
721.734
381.091
74.2341
-102.995
-185.754
4974.51
5205.76
3393.92
2611.88
2596.8
2744.96
2825.68
2844.81
2783.87
2682.4
5973.81
6447.02
4240.59
3189.64
2994.87
2838.05
2513.01
2110.76
1744.45
1626.66
7081.37
7660.9
4996.35
3741.09
3509.8
3343.51
3053.98
2758.33
2550.08
2551.88
8292.14
8893.63
5736.4
4303.44
3993.38
3758.31
3420.52
3050.45
2672.39
2470.71
9814.08
10037.2
6720.98
5227.04
4649.02
4157.68
3666.5
3172.38
2559.48
1896.56
12059.9
9467.84
7008.09
5988.36
5373.95
4857.14
4358.14
3784.31
2801.25
664.735
17340.6
10858.7
8001.27
6470.82
5563.67
4973.87
4498.49
3986.34
3025.74
-23.9977
11853.4
7077.09
5010.41
3936.88
3335.69
2959.72
2665.69
2359.86
1838.18
-73.3403
11978.5
7106.92
5011.16
3929.9
3329.11
2953.83
2658
2346.6
1813.88
-110.144
17621.9
10965.8
8038.61
6484.66
5572
4978.5
4496.01
3970.56
2987.13
-86.5204
12230
9567.44
7044.48
5997.34
5372.34
4846.62
4337.26
3748.44
2742.13
584.168
9878.32
10074.5
6679.06
5156.65
4572.04
4077.76
3582.96
3082.09
2458.9
1787.93
8256.55
8854.92
5633.68
4175.46
3863.47
3629.1
3287.38
2908.14
2516.28
2305.12
6963.01
7545.42
4827.22
3547.84
3314.33
3148.19
2856.09
2558.98
2355.58
2361.18
5778.11
6254.48
4003.33
2933.17
2735.97
2571.03
2227.91
1803.35
1426.46
1343.17
4706.14
4934.1
3084.23
2299.1
2306.83
2467.36
2548.87
2548.11
2489.58
2362.5
3956.54
3725.36
2111.48
1158.52
624.896
288.579
-52.8599
-341.299
-523.331
-619.488
3179.85
3055.5
3070.55
3360.1
3706.7
3949.08
4133.51
4269.79
4340.28
4145.29
)
;

boundaryField
{
    walls
    {
        type            calculated;
        value           nonuniform List<scalar> 
40
(
12.2954
11.0012
9.7069
8.41265
7.1184
5.82414
4.52989
3.23563
1.94138
0.647127
259.427
258.141
256.855
255.57
254.284
252.998
251.712
250.426
249.141
247.855
-12.1734
-10.892
-9.6106
-8.32919
-7.04778
-5.76636
-4.48495
-3.20353
-1.92212
-0.640707
-256.853
-255.58
-254.307
-253.034
-251.761
-250.488
-249.215
-247.942
-246.669
-245.396
)
;
    }
    topInlet
    {
        type            calculated;
        value           nonuniform List<scalar> 10(-14.5328 -19.954 -31.6337 -56.7969 -89.2753 -119.86 -150.444 -181.029 -211.613 -242.198);
    }
    bottomInlet
    {
        type            calculated;
        value           nonuniform List<scalar> 10(244.624 213.733 182.843 151.952 121.061 90.1698 57.366 31.9507 20.1539 14.6784);
    }
    outlet
    {
        type            calculated;
        value           nonuniform 0();
    }
    frontBack
    {
        type            empty;
    }
    procBoundary0to1
    {
        type            processor;
        value           nonuniform List<scalar> 
20
(
2240.54
-330.791
2198.85
1965.58
3001.09
3396.8
3995
3197.27
2327.27
2078.52
2067.63
2294.35
3136.35
3907.57
3238.63
2796.42
1702.34
1882.75
-772.846
1934.54
)
;
    }
}


// ************************************************************************* //
