/*--------------------------------*- C++ -*----------------------------------*\
| =========                 |                                                 |
| \\      /  F ield         | OpenFOAM: The Open Source CFD Toolbox           |
|  \\    /   O peration     | Version:  4.x                                   |
|   \\  /    A nd           | Web:      www.OpenFOAM.org                      |
|    \\/     M anipulation  |                                                 |
\*---------------------------------------------------------------------------*/
FoamFile
{
    version     2.0;
    format      ascii;
    class       volScalarField;
    location    "0.05";
    object      p_rgh;
}
// * * * * * * * * * * * * * * * * * * * * * * * * * * * * * * * * * * * * * //

dimensions      [1 -1 -2 0 0 0 0];

internalField   nonuniform List<scalar> 
200
(
3315.84
3167.85
3181.28
3463.36
3824.72
4070.05
4257
4391.7
4461.8
4259.6
4072.92
3865.86
2316.7
1398.59
848.723
515.085
175.73
-129.84
-305.782
-387.253
4792.32
5024.85
3214.3
2433.55
2419.76
2569.21
2651.22
2671.63
2611.98
2511.8
5822.51
6297.01
4091.86
3042.2
2848.72
2693.2
2369.45
1968.48
1603.46
1486.96
6960.96
7541.78
4878.52
3624.55
3394.55
3229.55
2941.31
2646.96
2439.99
2443.08
8202.62
8805.4
5649.47
4217.79
3909.02
3675.25
3338.75
2969.97
2593.21
2392.81
9757.36
9981.81
6666.85
5174.2
4597.48
4107.43
3617.54
3124.72
2513.1
1851.48
12028.6
9437.83
6979.37
5960.94
5347.82
4832.31
4334.6
3762.06
2780.3
645.075
17321.1
10840.5
7984.35
6455.2
5549.34
4960.84
4486.75
3975.89
3016.58
-31.8584
11839.3
7064.35
4998.97
3926.73
3326.84
2952.16
2659.42
2354.89
1834.5
-75.7238
11992.4
7119.53
5022.48
3939.95
3337.88
2961.32
2664.21
2351.52
1817.52
-107.785
17641.2
10983.8
8055.36
6500.13
5586.19
4991.4
4507.63
3980.91
2996.19
-78.7377
12261
9597.15
7072.92
6024.49
5398.21
4871.2
4360.57
3770.46
2762.87
603.634
9934.47
10129.4
6732.65
5208.97
4623.07
4127.52
3631.43
3129.29
2504.81
1832.57
8345.18
8942.27
5719.75
4260.26
3946.99
3711.33
3368.34
2987.83
2594.68
2382.25
7082.23
7663.36
4943.88
3663.23
3428.44
3261.01
2967.64
2669.25
2464.58
2468.9
5927.91
6403.01
4150.58
3079.14
2880.67
2714.45
2370.05
1944.21
1566.05
1481.48
4886.53
5113.21
3262.07
2475.66
2482.12
2641.37
2721.6
2719.56
2659.76
2531.41
4167.51
3935.05
2319.91
1365.67
830.769
493.178
150.464
-139.25
-322.556
-419.988
3421.41
3295.78
3309.56
3597.83
3943.16
4184.26
4367.42
4502.43
4571.65
4375.38
)
;

boundaryField
{
    walls
    {
        type            fixedValue;
        value           uniform 0;
    }
    topInlet
    {
        type            fixedValue;
        value           uniform 0;
    }
    bottomInlet
    {
        type            fixedValue;
        value           uniform 0;
    }
    outlet
    {
        type            fixedValue;
        value           nonuniform 0();
    }
    frontBack
    {
        type            empty;
    }
    procBoundary0to1
    {
        type            processor;
        value           nonuniform List<scalar> 
20
(
2008.78
-531.65
2028.89
1826.53
2892.93
3319.55
3950.56
3178.25
2320.06
2076.78
2069.35
2301.49
3155.17
3951.57
3315.12
2903.5
1840.02
2051.02
-573.979
2164
)
;
    }
}


// ************************************************************************* //
