/*--------------------------------*- C++ -*----------------------------------*\
| =========                 |                                                 |
| \\      /  F ield         | OpenFOAM: The Open Source CFD Toolbox           |
|  \\    /   O peration     | Version:  4.x                                   |
|   \\  /    A nd           | Web:      www.OpenFOAM.org                      |
|    \\/     M anipulation  |                                                 |
\*---------------------------------------------------------------------------*/
FoamFile
{
    version     2.0;
    format      ascii;
    class       surfaceScalarField;
    location    "0.05";
    object      phi;
}
// * * * * * * * * * * * * * * * * * * * * * * * * * * * * * * * * * * * * * //

dimensions      [0 3 -1 0 0 0 0];

internalField   nonuniform List<scalar> 
360
(
0.00147876
5.32807e-05
0.00142259
3.53533e-05
0.00137519
2.63126e-05
0.00133272
1.93069e-05
0.00129537
1.15536e-05
0.00126188
5.82855e-06
0.00123232
4.07049e-07
0.00120658
-4.49472e-06
0.0011848
-9.07488e-06
-1.39645e-05
0.0015488
5.60192e-05
0.00154143
4.2723e-05
0.00153382
3.39227e-05
0.00152524
2.78906e-05
0.00151481
2.19759e-05
0.00150391
1.67299e-05
0.0014921
1.22242e-05
0.00147912
8.48282e-06
0.00146566
4.38511e-06
6.06202e-07
0.00155089
5.48722e-05
0.00155082
4.27874e-05
0.00155024
3.45085e-05
0.00154938
2.87427e-05
0.00154798
2.33761e-05
0.00154632
1.83953e-05
0.00154449
1.40538e-05
0.00154277
1.01997e-05
0.00154094
6.21205e-06
2.03732e-06
0.00154811
5.39537e-05
0.00154914
4.17547e-05
0.00154979
3.38607e-05
0.00155066
2.78743e-05
0.00155171
2.23188e-05
0.00155277
1.7335e-05
0.00155377
1.30589e-05
0.00155451
9.45384e-06
0.00155419
6.53315e-06
4.23653e-06
0.00154541
5.2859e-05
0.00154691
4.02609e-05
0.00154778
3.29911e-05
0.00154902
2.66319e-05
0.00155043
2.09044e-05
0.00155162
1.61477e-05
0.00155256
1.21213e-05
0.00155316
8.84717e-06
0.00155288
6.81786e-06
6.39156e-06
0.00154292
5.10012e-05
0.0015445
3.86833e-05
0.00154511
3.23857e-05
0.00154654
2.51978e-05
0.00154786
1.95822e-05
0.00154862
1.53937e-05
0.00154907
1.16706e-05
0.00154933
8.58279e-06
0.00154842
7.73146e-06
1.21533e-05
0.00173066
4.75368e-05
0.00172649
4.28512e-05
0.00172279
3.60847e-05
0.00171951
2.84773e-05
0.00171404
2.50531e-05
0.0017063
2.31337e-05
0.00169715
2.08247e-05
0.00168746
1.82707e-05
0.00167679
1.83983e-05
3.5143e-05
0.000779556
6.74711e-05
0.000743106
7.9301e-05
0.000709492
6.96987e-05
0.000675216
6.27538e-05
0.000641739
5.85302e-05
0.000610199
5.46739e-05
0.000580903
5.01207e-05
0.000554969
4.42044e-05
0.000537305
3.60624e-05
4.54444e-05
0.000280676
0.000157213
0.000225885
0.000134092
0.000191875
0.000103709
0.000169573
8.50554e-05
0.000154217
7.38865e-05
0.000142422
6.64683e-05
0.000132287
6.02567e-05
0.000123103
5.33875e-05
0.000117846
4.13197e-05
2.3975e-05
7.13628e-05
4.5683e-05
3.46154e-05
2.87196e-05
2.51233e-05
2.25647e-05
2.04382e-05
1.84187e-05
1.64438e-05
7.04472e-05
-0.000158745
4.49237e-05
-0.000134879
3.40074e-05
-0.000103928
2.82086e-05
-8.5069e-05
2.46696e-05
-7.38607e-05
2.21416e-05
-6.64052e-05
2.00319e-05
-6.01053e-05
1.80298e-05
-5.30753e-05
1.61e-05
-4.07678e-05
-2.33871e-05
0.000279032
-6.75452e-05
0.000223887
-7.97336e-05
0.000189918
-6.99597e-05
0.000167711
-6.28612e-05
0.000152412
-5.85625e-05
0.000140628
-5.46205e-05
0.000130475
-4.9953e-05
0.000121286
-4.38861e-05
0.000116088
-3.55696e-05
-4.51515e-05
0.000778392
-4.68826e-05
0.00074094
-4.22811e-05
0.000706506
-3.55261e-05
0.00067149
-2.78448e-05
0.000637393
-2.44655e-05
0.000605347
-2.25748e-05
0.000575654
-2.02592e-05
0.000549465
-1.76977e-05
0.000531818
-1.79226e-05
-3.5087e-05
0.00173007
-5.05507e-05
0.00172577
-3.79839e-05
0.00172187
-3.16285e-05
0.00171837
-2.43441e-05
0.00171258
-1.8676e-05
0.00170445
-1.44445e-05
0.00169488
-1.06825e-05
0.00168476
-7.57689e-06
0.00167363
-6.79982e-06
-1.14492e-05
0.00154247
-5.2528e-05
0.00154413
-3.964e-05
0.00154475
-3.22553e-05
0.00154622
-2.58085e-05
0.00154755
-2.00126e-05
0.00154831
-1.52036e-05
0.00154877
-1.11383e-05
0.00154904
-7.8474e-06
0.00154808
-5.84207e-06
-5.5298e-06
0.001545
-5.36942e-05
0.00154658
-4.12154e-05
0.00154749
-3.31676e-05
0.00154877
-2.70904e-05
0.00155023
-2.14686e-05
0.00155145
-1.6429e-05
0.00155242
-1.21014e-05
0.00155302
-8.452e-06
0.00155273
-5.55565e-06
-3.41687e-06
0.00154775
-5.4672e-05
0.00154885
-4.23089e-05
0.00154953
-3.38467e-05
0.00155043
-2.79939e-05
0.00155155
-2.25917e-05
0.0015527
-1.75738e-05
0.00155378
-1.31843e-05
0.00155456
-9.2294e-06
0.00155408
-5.07911e-06
-1.16609e-06
0.00155061
-5.59049e-05
0.00155057
-4.22686e-05
0.00154995
-3.32261e-05
0.00154903
-2.70769e-05
0.00154763
-2.11856e-05
0.00154596
-1.59121e-05
0.00154422
-1.14364e-05
0.00154245
-7.46378e-06
0.00154075
-3.37403e-06
3.4699e-07
0.00154854
-5.32494e-05
0.00154115
-3.48779e-05
0.00153349
-2.55732e-05
0.00152472
-1.82993e-05
0.00151424
-1.07071e-05
0.00150317
-4.84505e-06
0.00149105
6.80742e-07
0.0014779
5.68868e-06
0.00146428
1.02496e-05
1.49897e-05
0.00147754
0.00142081
0.00137308
0.00133048
0.00129292
0.00125935
0.00122984
0.00120424
0.00118256
)
;

boundaryField
{
    walls
    {
        type            calculated;
        value           nonuniform List<scalar> 
40
(
0.000260107
0.000159772
0.000114776
9.09511e-05
7.74829e-05
6.90269e-05
6.23832e-05
5.5407e-05
4.32946e-05
-1.75604e-06
2.1365e-05
2.08077e-05
2.10914e-05
2.31627e-05
2.57976e-05
2.76656e-05
2.91457e-05
3.02343e-05
3.08627e-05
2.95105e-05
0.000262544
0.000160403
0.000114844
9.08679e-05
7.73997e-05
6.89331e-05
6.2215e-05
5.50775e-05
4.26975e-05
-2.48841e-06
2.22536e-05
2.18564e-05
2.2155e-05
2.42974e-05
2.68568e-05
2.87217e-05
3.01919e-05
3.12937e-05
3.1925e-05
3.06025e-05
)
;
    }
    topInlet
    {
        type            calculated;
        value           nonuniform List<scalar> 10(-0.000174246 -0.000370232 -0.000799055 -0.0017264 -0.00154049 -0.00154384 -0.00154677 -0.00154938 -0.00155119 -0.00155305);
    }
    bottomInlet
    {
        type            calculated;
        value           nonuniform List<scalar> 10(-0.0015534 -0.00155154 -0.00154974 -0.00154719 -0.00154432 -0.00154106 -0.00172719 -0.000799491 -0.000370418 -0.000174258);
    }
    outlet
    {
        type            calculated;
        value           nonuniform 0();
    }
    frontBack
    {
        type            empty;
        value           nonuniform 0();
    }
    procBoundary0to1
    {
        type            processor;
        value           nonuniform List<scalar> 
20
(
0.00116925
0.00145109
0.00153951
0.00155199
0.00155072
0.00154266
0.0016538
0.000527003
0.000139316
4.21748e-05
4.19755e-05
0.000137852
0.000521754
0.00165
0.00154216
0.00155062
0.00155183
0.00153923
0.00144964
0.00116695
)
;
    }
}


// ************************************************************************* //
