/*--------------------------------*- C++ -*----------------------------------*\
| =========                 |                                                 |
| \\      /  F ield         | OpenFOAM: The Open Source CFD Toolbox           |
|  \\    /   O peration     | Version:  4.x                                   |
|   \\  /    A nd           | Web:      www.OpenFOAM.org                      |
|    \\/     M anipulation  |                                                 |
\*---------------------------------------------------------------------------*/
FoamFile
{
    version     2.0;
    format      ascii;
    class       volVectorField;
    location    "0.05";
    object      U;
}
// * * * * * * * * * * * * * * * * * * * * * * * * * * * * * * * * * * * * * //

dimensions      [0 1 -1 0 0 0 0];

internalField   nonuniform List<vector> 
200
(
(19.166 0.771115 1.84314e-24)
(18.5157 0.561469 2.48777e-24)
(17.8901 0.39293 1.92729e-24)
(17.3162 0.241147 -1.14087e-27)
(16.8081 0.095069 3.02033e-26)
(16.357 -0.0447351 -2.18973e-30)
(15.9536 -0.172536 0)
(15.6011 -0.282348 -9.09014e-28)
(15.2986 -0.374296 6.0494e-27)
(15.0929 -0.43804 1.46134e-24)
(19.748 0.960601 5.05773e-25)
(19.7186 0.866398 8.41135e-30)
(19.673 0.835449 1.45528e-26)
(19.5775 0.835882 8.00319e-26)
(19.4537 0.841874 5.84208e-25)
(19.3152 0.84341 5.41956e-25)
(19.1717 0.842611 -1.67759e-26)
(19.0145 0.83842 0)
(18.8456 0.83249 0)
(18.6771 0.816266 -6.09959e-25)
(19.7385 0.972089 0)
(19.7758 0.875414 -7.58521e-25)
(19.8324 0.806809 1.43277e-25)
(19.8406 0.745442 5.76191e-25)
(19.8231 0.673695 0)
(19.8006 0.598917 -7.63714e-25)
(19.7786 0.527342 7.70545e-25)
(19.757 0.462894 7.39528e-25)
(19.7352 0.40826 6.76797e-25)
(19.722 0.356792 5.06158e-27)
(19.6867 0.956499 7.38803e-25)
(19.7344 0.858715 -8.7079e-25)
(19.8159 0.79508 4.02474e-25)
(19.8464 0.748313 -6.88715e-26)
(19.8539 0.708312 3.60674e-25)
(19.8632 0.678762 -2.04695e-25)
(19.8771 0.661342 2.27368e-25)
(19.8906 0.653566 1.51332e-26)
(19.8961 0.64921 -3.29189e-27)
(19.8832 0.639102 1.94567e-27)
(19.6304 0.945429 3.17957e-24)
(19.6885 0.848007 -1.62182e-24)
(19.7875 0.788353 7.58162e-25)
(19.8254 0.741772 -4.10706e-25)
(19.8362 0.699174 1.87023e-30)
(19.8481 0.660197 -1.30942e-26)
(19.8628 0.622844 3.40894e-25)
(19.8752 0.585815 1.45685e-26)
(19.8798 0.551152 -3.48095e-25)
(19.8651 0.521878 0)
(19.5707 0.929251 1.85677e-24)
(19.6401 0.837887 1.40354e-25)
(19.7545 0.773324 8.61447e-25)
(19.7959 0.716507 -4.29162e-25)
(19.8055 0.671889 -3.78316e-25)
(19.8134 0.638799 0)
(19.8219 0.612458 0)
(19.8282 0.592717 -1.6824e-25)
(19.8268 0.587251 -3.98754e-27)
(19.7856 0.606289 2.09435e-25)
(19.4948 0.878356 -6.83098e-25)
(19.5519 0.860604 1.65014e-29)
(19.6291 0.806937 9.55481e-25)
(19.6162 0.732643 -1.20454e-24)
(19.5576 0.671458 6.06443e-26)
(19.4782 0.622324 4.60414e-25)
(19.3823 0.579948 3.79182e-25)
(19.2746 0.54626 -3.33695e-25)
(19.1587 0.539152 3.54549e-26)
(18.9594 0.621276 1.4303e-24)
(19.1359 0.678396 0)
(18.5855 0.704718 -1.19109e-29)
(17.8367 0.686468 1.03537e-24)
(16.9876 0.667257 -1.57281e-24)
(16.1419 0.660206 1.60292e-26)
(15.3421 0.646565 4.54248e-25)
(14.597 0.618389 9.23574e-25)
(13.9133 0.577487 -1.14561e-26)
(13.3371 0.543368 0)
(12.8621 0.686541 1.21176e-24)
(16.0926 1.69938 4.2917e-24)
(13.0204 1.56681 -9.42552e-24)
(10.8364 1.32668 3.99729e-24)
(9.41947 1.14802 6.30854e-27)
(8.48346 1.03072 3.76817e-27)
(7.80203 0.944372 -1.16609e-27)
(7.24195 0.866494 -3.04516e-24)
(6.7404 0.779658 0)
(6.29773 0.644989 -1.46781e-27)
(6.02299 0.483237 -5.70763e-29)
(10.0312 2.34203 6.00355e-27)
(6.00836 1.68551 -3.95682e-23)
(4.3471 1.205 -7.45921e-28)
(3.50244 0.947902 -1.15954e-23)
(3.01437 0.804156 -1.71162e-28)
(2.69014 0.713091 -2.73444e-28)
(2.43683 0.640976 -1.43328e-28)
(2.21094 0.566201 -7.14622e-24)
(1.98633 0.444877 1.72457e-28)
(1.73177 0.175419 -4.26461e-29)
(9.91841 -2.34846 6.3898e-23)
(5.91159 -1.68256 1.87172e-27)
(4.27117 -1.19885 2.89753e-23)
(3.4401 -0.941689 -1.16029e-23)
(2.96047 -0.798751 1.71498e-28)
(2.64082 -0.708048 2.72198e-28)
(2.38988 -0.63556 1.41191e-28)
(2.16544 -0.559627 7.11211e-24)
(1.94324 -0.436541 -1.76844e-28)
(1.6966 -0.167624 4.25327e-29)
(16.0123 -1.71401 4.49428e-24)
(12.9155 -1.57731 -9.77086e-24)
(10.7304 -1.3308 4.10231e-24)
(9.31887 -1.14875 -1.3032e-26)
(8.38732 -1.03019 -3.82392e-27)
(7.70745 -0.94289 1.19153e-27)
(7.14684 -0.863658 -3.09327e-24)
(6.64413 -0.774758 0)
(6.20181 -0.637137 1.49726e-27)
(5.9319 -0.474581 5.52415e-29)
(19.1088 -0.669724 0)
(18.5417 -0.700297 -1.23516e-29)
(17.7735 -0.683939 1.03677e-24)
(16.9049 -0.665219 -1.57904e-24)
(16.0422 -0.65807 -1.65369e-26)
(15.2286 -0.643779 4.29682e-25)
(14.4725 -0.614627 9.50886e-25)
(13.7804 -0.572687 1.18966e-26)
(13.1999 -0.538076 0)
(12.7269 -0.68419 1.24064e-24)
(19.4818 -0.872925 1.51979e-24)
(19.5413 -0.85424 3.57304e-25)
(19.6201 -0.799123 9.86241e-25)
(19.6055 -0.72327 -1.47344e-24)
(19.5433 -0.661068 -6.20879e-26)
(19.4596 -0.611468 4.67893e-25)
(19.359 -0.568978 4.40678e-25)
(19.2464 -0.53553 -3.02081e-25)
(19.1253 -0.52943 0)
(18.9194 -0.614228 1.47057e-24)
(19.5601 -0.925781 1.91226e-24)
(19.6321 -0.832524 -1.45769e-25)
(19.7498 -0.767281 3.76303e-28)
(19.7922 -0.709951 -3.36098e-28)
(19.8018 -0.665063 -3.1546e-26)
(19.8096 -0.631897 3.00671e-25)
(19.8181 -0.605553 0)
(19.8245 -0.586043 -1.63976e-25)
(19.8229 -0.581509 4.21705e-27)
(19.7803 -0.60219 2.1474e-25)
(19.6213 -0.942805 6.5057e-26)
(19.6815 -0.843207 -1.77446e-24)
(19.7836 -0.782525 1.90316e-29)
(19.8226 -0.735266 -7.23186e-30)
(19.8336 -0.692054 3.75637e-25)
(19.8458 -0.652239 3.65912e-25)
(19.8609 -0.613622 3.71561e-25)
(19.8735 -0.574936 0)
(19.8781 -0.538916 -3.65282e-25)
(19.8636 -0.51007 0)
(19.6788 -0.954458 7.55249e-25)
(19.7282 -0.854401 -9.89557e-25)
(19.8124 -0.789429 4.09273e-25)
(19.8438 -0.742207 6.10178e-30)
(19.8516 -0.70268 3.12542e-25)
(19.8617 -0.67406 -2.48811e-25)
(19.8767 -0.657705 1.78379e-25)
(19.891 -0.650357 -1.49853e-26)
(19.896 -0.646361 3.19366e-27)
(19.8817 -0.63543 -2.34577e-27)
(19.7318 -0.970799 0)
(19.7707 -0.87177 -9.58012e-25)
(19.8291 -0.800584 -1.47277e-25)
(19.8372 -0.73638 6.06483e-25)
(19.8189 -0.662599 0)
(19.7961 -0.586122 -7.86455e-25)
(19.7746 -0.513627 7.8728e-25)
(19.7533 -0.449817 7.38187e-25)
(19.732 -0.396037 6.65975e-25)
(19.7189 -0.343724 -5.29069e-27)
(19.7415 -0.959553 5.06648e-25)
(19.7134 -0.865181 8.93505e-30)
(19.669 -0.83587 -1.56167e-25)
(19.5727 -0.838319 2.28769e-25)
(19.4468 -0.844652 4.19586e-25)
(19.3069 -0.845919 5.25633e-25)
(19.1605 -0.84441 1.65532e-26)
(18.9999 -0.840051 0)
(18.8287 -0.833918 0)
(18.6585 -0.81857 -6.49991e-25)
(19.1511 -0.76493 3.38775e-24)
(18.4951 -0.546394 2.56137e-24)
(17.8651 -0.372345 2.03428e-24)
(17.2887 -0.216871 -1.82693e-24)
(16.7782 -0.0675802 -3.51071e-24)
(16.3251 0.0746738 -3.43689e-24)
(15.9214 0.203711 0)
(15.5703 0.314403 8.62135e-28)
(15.2694 0.406246 -6.06612e-27)
(15.0646 0.468998 2.9471e-24)
)
;

boundaryField
{
    walls
    {
        type            noSlip;
    }
    topInlet
    {
        type            fixedValue;
        value           uniform (19.9726 -1.0467 0);
    }
    bottomInlet
    {
        type            fixedValue;
        value           uniform (19.9726 1.0467 0);
    }
    outlet
    {
        type            zeroGradient;
    }
    frontBack
    {
        type            empty;
    }
    procBoundary0to1
    {
        type            processor;
        value           nonuniform List<vector> 
20
(
(14.7834 -0.418621 0)
(18.4887 0.737115 0)
(19.6776 0.31673 0)
(19.8597 0.599308 0)
(19.8426 0.487986 0)
(19.7333 0.573866 0)
(18.7938 0.629585 0)
(13.0215 0.763612 0)
(8.29032 0.54801 0)
(6.89166 0.191287 0)
(6.87771 -0.18056 0)
(8.22325 -0.537578 0)
(12.8983 -0.761436 0)
(18.7491 -0.623522 0)
(19.7265 -0.569374 0)
(19.841 -0.476756 0)
(19.8575 -0.595085 0)
(19.6738 -0.302537 0)
(18.47 -0.740588 0)
(14.754 0.449808 0)
)
;
    }
}


// ************************************************************************* //
