/*--------------------------------*- C++ -*----------------------------------*\
| =========                 |                                                 |
| \\      /  F ield         | OpenFOAM: The Open Source CFD Toolbox           |
|  \\    /   O peration     | Version:  4.x                                   |
|   \\  /    A nd           | Web:      www.OpenFOAM.org                      |
|    \\/     M anipulation  |                                                 |
\*---------------------------------------------------------------------------*/
FoamFile
{
    version     2.0;
    format      ascii;
    class       surfaceScalarField;
    location    "0.15";
    object      alphaPhi;
}
// * * * * * * * * * * * * * * * * * * * * * * * * * * * * * * * * * * * * * //

dimensions      [0 3 -1 0 0 0 0];

internalField   nonuniform List<scalar> 
370
(
6.2161e-31
-2.96157e-37
1.44922e-28
-4.41746e-34
1.36831e-26
-1.80174e-31
2.96099e-25
-6.96529e-30
3.65865e-24
-1.46102e-28
3.13914e-23
-2.08445e-27
2.04204e-22
-9.69365e-26
1.06942e-21
-8.96522e-25
4.39142e-21
-4.55232e-24
-1.00578e-23
2.50256e-36
-1.28421e-41
3.2873e-33
-7.38593e-38
1.22006e-30
-8.67044e-35
4.71797e-29
-4.86486e-33
9.78115e-28
-1.4594e-31
1.38104e-26
-2.99812e-30
6.36927e-25
-5.64575e-25
5.89379e-24
-4.86591e-24
2.86963e-23
-1.84702e-23
-1.82192e-23
1.96662e-40
-2.61676e-44
9.72216e-37
-3.17308e-40
1.018e-33
-6.83696e-37
5.60361e-32
-4.60136e-35
1.63063e-30
-1.67354e-33
3.2593e-29
-5.43227e-32
6.01038e-24
-6.57442e-24
5.08071e-23
-4.96568e-23
1.93776e-22
-1.6138e-22
-1.57885e-22
8.01792e-43
-1.17572e-45
7.94744e-39
-1.98789e-41
1.46387e-35
-5.58914e-38
9.31522e-34
-4.03979e-36
3.18288e-32
-1.57737e-34
9.76489e-31
-1.91674e-32
1.12923e-22
-1.19497e-22
8.19734e-22
-7.56467e-22
2.72046e-21
-2.06211e-21
-1.99409e-21
9.991e-44
3.44917e-47
1.23641e-39
-4.38249e-42
2.71394e-36
-1.88536e-38
1.72311e-34
-1.56307e-36
5.95324e-33
-6.45635e-35
6.48494e-31
-3.39981e-32
3.69913e-21
-3.81862e-21
2.16859e-20
-1.87432e-20
6.05646e-20
-4.09408e-20
-3.91358e-20
2.42633e-43
1.56442e-45
2.46868e-39
1.29113e-41
4.27552e-36
1.49497e-38
2.28795e-34
3.31054e-37
6.97331e-33
-1.89871e-35
2.88641e-30
-1.10835e-31
2.70418e-19
-2.74237e-19
1.146e-18
-9.02141e-19
2.54654e-18
-1.48146e-18
-1.25436e-18
3.59421e-43
1.90907e-45
1.91798e-38
8.4443e-41
3.79771e-35
1.255e-37
1.90782e-33
3.88624e-36
5.18619e-32
5.12789e-35
5.41402e-29
1.25103e-33
7.73976e-17
-7.76718e-17
1.82963e-16
-1.46729e-16
2.98046e-16
-2.56397e-16
-2.70835e-16
-3.02754e-41
-1.64891e-43
-1.82671e-38
-7.6849e-41
1.74556e-36
4.92494e-39
2.0795e-36
5.19717e-36
5.28625e-36
5.00793e-35
1.87099e-13
-1.87099e-13
4.77267e-13
-4.45294e-13
8.04989e-13
-7.56729e-13
9.77262e-13
-9.84615e-13
-9.64345e-13
-2.37941e-39
-9.92779e-42
-6.2459e-36
-1.54699e-38
-1.38627e-32
-9.60978e-36
1.53141e-10
-1.53141e-10
6.39531e-10
-4.89548e-10
1.43889e-09
-8.0964e-10
2.21254e-09
-7.91737e-10
3.06097e-09
-8.67878e-10
3.62581e-09
-5.84891e-10
1.4231e-09
-1.35983e-38
-1.56747e-41
1.29291e-07
-1.29291e-07
4.90483e-07
-3.61192e-07
1.0435e-06
-5.53173e-07
1.79391e-06
-7.50891e-07
2.73267e-06
-9.39559e-07
3.70434e-06
-9.72445e-07
4.70949e-06
-1.006e-06
5.76109e-06
-1.05217e-06
-9.62889e-07
0.000135911
-1.03512e-06
0.000137071
-1.28939e-06
0.000138217
-1.50722e-06
0.000139265
-1.60084e-06
0.000140265
-1.7505e-06
0.00014122
-1.89529e-06
0.000142026
-1.77838e-06
0.000142725
-1.70486e-06
0.00014336
-1.68696e-06
-1.51577e-06
0.000332938
-3.59038e-06
0.000335171
-3.5232e-06
0.000337002
-3.33776e-06
0.000338327
-2.92567e-06
0.000339257
-2.68114e-06
0.000339833
-2.47077e-06
0.000340075
-2.02068e-06
0.000340068
-1.6978e-06
0.000339919
-1.53824e-06
-1.35186e-06
0.000720875
-8.21279e-06
0.000724913
-7.56132e-06
0.000728175
-6.59952e-06
0.000730461
-5.21201e-06
0.000731969
-4.18864e-06
0.000732748
-3.25055e-06
0.000732842
-2.11416e-06
0.000732353
-1.20863e-06
0.000731746
-9.31961e-07
-6.78445e-07
0.00159009
-9.49973e-06
0.00159094
-8.41497e-06
0.00159092
-6.58301e-06
0.00158986
-4.15017e-06
0.00158774
-2.06337e-06
0.00158443
5.09221e-08
0.00157991
2.41049e-06
0.00157413
4.57313e-06
0.00156865
4.54717e-06
3.28552e-06
0.00146103
-5.30377e-07
0.00145081
1.80394e-06
0.00143934
4.89327e-06
0.00142742
7.77162e-06
0.00141475
1.06058e-05
0.00140124
1.35547e-05
0.00138697
1.66821e-05
0.00137194
1.96021e-05
0.00135753
1.89624e-05
1.15612e-05
0.00145784
1.74356e-05
0.00143696
2.2679e-05
0.00141381
2.80413e-05
0.00139054
3.10423e-05
0.00136695
3.42039e-05
0.00134321
3.72912e-05
0.00131959
4.03011e-05
0.0012962
4.29943e-05
0.00127401
4.11468e-05
2.33535e-05
0.00137277
4.55107e-05
0.00134175
5.37007e-05
0.00130904
6.07459e-05
0.00127778
6.23047e-05
0.00124759
6.44008e-05
0.00121863
6.62512e-05
0.00119105
6.78722e-05
0.00116487
6.91805e-05
0.00113981
6.62077e-05
3.70837e-05
0.00119335
7.9297e-05
0.00115808
8.89752e-05
0.00112258
9.62443e-05
0.00108999
9.48909e-05
0.00105964
9.47578e-05
0.00103144
9.44513e-05
0.0010053
9.40073e-05
0.000980944
9.35389e-05
0.000956422
9.07293e-05
5.00868e-05
0.000928199
0.000112194
0.000894749
0.000122425
0.000861754
0.00012924
0.00083218
0.000124465
0.00080536
0.000121578
0.000781034
0.000118777
0.000758778
0.000116263
0.000739195
0.000113122
0.000715673
0.000114252
6.60387e-05
0.00061147
0.000581749
0.000552528
0.000526829
0.000504299
0.000484369
0.000466401
0.000451491
0.000429737
)
;

boundaryField
{
    walls
    {
        type            calculated;
        value           nonuniform List<scalar> 
20
(
1.40453e-31
3.69621e-29
3.83135e-27
8.25052e-26
1.02324e-24
8.81675e-24
5.771e-23
2.98053e-22
1.36562e-21
4.364e-21
0.000141836
0.000152146
0.000158461
0.000150164
0.000144108
0.000138707
0.000134231
0.000128032
0.000136007
8.03442e-05
)
;
    }
    topInlet
    {
        type            calculated;
        value           nonuniform 0();
    }
    bottomInlet
    {
        type            calculated;
        value           nonuniform 0();
    }
    outlet
    {
        type            calculated;
        value           nonuniform List<scalar> 
20
(
2.27105e-20
1.05458e-22
3.34041e-22
4.55667e-21
9.7706e-20
3.68859e-18
3.12023e-16
6.82071e-13
2.17708e-09
6.72543e-06
0.000143913
0.000339756
0.000731073
0.00156469
0.00134925
0.00126222
0.00112608
0.000943419
0.000699721
0.000415431
)
;
    }
    frontBack
    {
        type            empty;
        value           nonuniform 0();
    }
    procBoundary3to2
    {
        type            processor;
        value           nonuniform List<scalar> 
20
(
-1.18518e-33
-6.94405e-40
-1.26874e-44
-2.57137e-47
-2.86931e-48
-7.6191e-48
2.8755e-47
1.31167e-44
8.0701e-43
4.45793e-42
-0.00013489
-0.000330382
-0.000716253
-0.0015888
-0.00147
-0.0014758
-0.00140085
-0.00122714
-0.000961096
-0.000641112
)
;
    }
}


// ************************************************************************* //
