/*--------------------------------*- C++ -*----------------------------------*\
| =========                 |                                                 |
| \\      /  F ield         | OpenFOAM: The Open Source CFD Toolbox           |
|  \\    /   O peration     | Version:  4.x                                   |
|   \\  /    A nd           | Web:      www.OpenFOAM.org                      |
|    \\/     M anipulation  |                                                 |
\*---------------------------------------------------------------------------*/
FoamFile
{
    version     2.0;
    format      ascii;
    class       surfaceScalarField;
    location    "0.05";
    object      alphaPhi;
}
// * * * * * * * * * * * * * * * * * * * * * * * * * * * * * * * * * * * * * //

dimensions      [0 3 -1 0 0 0 0];

internalField   nonuniform List<scalar> 
370
(
2.50417e-33
-2.29117e-39
1.00584e-30
-4.37819e-36
1.97384e-28
-3.63479e-33
2.06506e-26
-1.44595e-30
1.23172e-24
-2.95861e-28
4.42369e-23
-3.29434e-26
9.97401e-22
-2.10523e-24
1.46381e-20
-8.04188e-23
1.44414e-19
-1.88751e-21
-2.49527e-20
7.98534e-38
-1.45967e-42
1.27793e-34
-6.49523e-39
9.05476e-32
-1.13561e-35
3.10879e-29
-9.18559e-33
5.52739e-27
-3.79527e-30
5.36789e-25
-8.33867e-28
3.00242e-23
-1.02447e-25
1.00316e-21
-7.21724e-24
2.07929e-20
-2.92094e-22
-6.67904e-21
2.2913e-40
8.23034e-43
6.2833e-37
7.5627e-40
7.92167e-34
-1.56854e-37
4.93795e-31
-3.31298e-34
1.6353e-28
-2.30864e-31
2.95414e-26
-7.9234e-29
3.02995e-24
-1.44194e-26
1.79876e-22
-1.49299e-24
6.4034e-21
-8.82214e-23
-3.34965e-21
5.15769e-41
3.27935e-43
1.16596e-37
5.81998e-40
1.37428e-34
5.17362e-37
9.30791e-32
2.40134e-34
3.73617e-29
5.19547e-32
8.6699e-27
5.76197e-31
1.16312e-24
-1.27395e-27
9.21965e-23
-2.91567e-25
4.39986e-21
-2.765e-23
-2.17261e-21
3.69358e-41
2.77145e-43
5.78962e-38
3.81807e-40
2.45024e-35
1.45206e-37
6.84527e-35
3.70922e-37
9.56725e-30
4.79548e-32
4.81955e-27
2.22642e-29
9.15314e-25
3.87813e-27
9.19225e-23
3.38768e-25
5.25977e-21
1.41879e-23
-7.95225e-22
-6.27289e-41
-6.22316e-43
-5.86584e-37
-5.52347e-39
-1.26375e-33
-1.15217e-35
-9.80476e-31
-8.75475e-33
-2.29999e-28
-2.02323e-30
-2.31638e-26
-2.00625e-28
-7.70194e-25
-6.55679e-27
6.45135e-23
5.3159e-25
7.05913e-21
5.36228e-23
1.2844e-21
-3.19247e-38
-3.83485e-40
-1.05965e-34
-1.19332e-36
-1.3457e-31
-1.42746e-33
-7.07611e-29
-7.06834e-31
-1.22268e-26
-1.14615e-28
-1.08535e-24
-9.48881e-27
-5.63172e-23
-4.57335e-25
-1.12066e-21
-8.37574e-24
-1.07022e-20
-7.14048e-23
-2.0996e-22
-1.81394e-34
-2.8222e-36
-1.33086e-31
-1.89404e-33
-5.49523e-29
-7.23035e-31
-1.23624e-26
-1.50768e-28
-1.16708e-24
-1.31409e-26
-6.73138e-23
-6.93474e-25
-2.75388e-21
-2.58461e-23
-4.52309e-20
-3.83159e-22
-4.44582e-19
-3.30203e-21
-1.53287e-20
-3.3936e-32
-4.71453e-34
-1.02412e-29
-1.32125e-31
-2.28202e-27
-2.78054e-29
-3.47579e-25
-4.00431e-27
-2.59288e-23
-2.79004e-25
-1.34547e-21
-1.32281e-23
-5.8113e-20
-5.17248e-22
-9.37889e-19
-7.43507e-21
-1.28362e-17
-8.77695e-20
-9.2722e-19
-1.50473e-31
-1.19686e-33
-4.03446e-29
-3.30534e-31
-8.22708e-27
-7.08986e-29
-1.20098e-24
-1.06653e-26
-8.71865e-23
-7.60702e-25
-4.61271e-21
-3.70795e-23
-2.131e-19
-1.53947e-21
-3.47372e-18
-2.16736e-20
-5.15958e-17
-2.66081e-19
-3.31091e-18
0.000126406
-1.92711e-06
0.000128005
-1.59864e-06
0.000129291
-1.28612e-06
0.000130315
-1.02394e-06
0.000131158
-8.4377e-07
0.000131919
-7.60295e-07
0.000132626
-7.11428e-07
0.000133335
-6.98359e-07
0.000133997
-6.75837e-07
-4.26792e-07
0.000293177
-8.09078e-06
0.000298806
-7.22728e-06
0.000303975
-6.45489e-06
0.000308735
-5.7843e-06
0.000313127
-5.23584e-06
0.000317182
-4.81512e-06
0.000320921
-4.45065e-06
0.000324354
-4.13097e-06
0.00032742
-3.74178e-06
-2.5375e-06
0.000654127
-1.73e-05
0.000662822
-1.5922e-05
0.00067103
-1.46632e-05
0.000678775
-1.35292e-05
0.000686081
-1.2542e-05
0.000692965
-1.16985e-05
0.00069943
-1.09156e-05
0.000705452
-1.01531e-05
0.000710892
-9.1824e-06
-6.2187e-06
0.00159627
-1.32168e-05
0.00159266
-1.23109e-05
0.00158967
-1.16729e-05
0.00158741
-1.12678e-05
0.00158595
-1.10846e-05
0.00158531
-1.1056e-05
0.00158542
-1.10241e-05
0.00158611
-1.08479e-05
0.00158707
-1.0144e-05
-5.17625e-06
0.00152501
-9.50723e-06
0.00152066
-7.95973e-06
0.00151576
-6.77356e-06
0.00151039
-5.90336e-06
0.00150464
-5.33124e-06
0.00149855
-4.96309e-06
0.00149214
-4.61077e-06
0.00148534
-4.05561e-06
0.00147806
-2.86388e-06
4.41265e-06
0.00154696
-7.61836e-06
0.00154431
-5.31402e-06
0.00154076
-3.21982e-06
0.00153617
-1.31553e-06
0.00153038
4.52181e-07
0.00152322
2.2043e-06
0.00151443
4.17294e-06
0.00150386
6.52284e-06
0.00149169
9.29639e-06
1.87496e-05
0.00153139
-2.98799e-06
0.00152537
7.05447e-07
0.00151778
4.37826e-06
0.00150832
8.13848e-06
0.00149681
1.19643e-05
0.00148304
1.59792e-05
0.00146678
2.04237e-05
0.0014479
2.54114e-05
0.0014269
3.02894e-05
3.84526e-05
0.00144686
1.15898e-05
0.00143029
1.72767e-05
0.00141182
2.28458e-05
0.00139127
2.86926e-05
0.0013688
3.44289e-05
0.00134435
4.04357e-05
0.00131788
4.68921e-05
0.00128942
5.38729e-05
0.00126026
5.94468e-05
6.14815e-05
0.00122132
3.71359e-05
0.00119536
4.32289e-05
0.00116886
4.9347e-05
0.00114186
5.56932e-05
0.00111404
6.22538e-05
0.0010853
6.91696e-05
0.00105562
7.65752e-05
0.00102481
8.46848e-05
0.000991761
9.24947e-05
9.05271e-05
0.000878079
0.000856309
0.000833393
0.000809198
0.000783648
0.000756812
0.000728926
0.000700174
0.000667214
)
;

boundaryField
{
    walls
    {
        type            calculated;
        value           nonuniform List<scalar> 
20
(
1.59881e-34
7.37719e-32
1.65508e-29
1.97259e-27
1.33647e-25
5.44219e-24
1.38752e-22
2.30408e-21
2.6433e-20
1.99092e-19
5.80694e-05
6.49987e-05
7.22634e-05
7.98887e-05
8.7803e-05
9.60057e-05
0.000104462
0.000113437
0.000125455
0.000131541
)
;
    }
    topInlet
    {
        type            calculated;
        value           nonuniform 0();
    }
    bottomInlet
    {
        type            calculated;
        value           nonuniform 0();
    }
    outlet
    {
        type            calculated;
        value           nonuniform 0();
    }
    frontBack
    {
        type            empty;
        value           nonuniform 0();
    }
    procBoundary2to1
    {
        type            processor;
        value           nonuniform List<scalar> 
20
(
-2.75266e-36
-1.96481e-41
-3.55143e-44
-9.42444e-45
-7.3841e-45
-4.79045e-47
6.21357e-42
1.82163e-37
8.13952e-35
4.10505e-34
-0.000124475
-0.000287014
-0.000644918
-0.00160035
-0.00152872
-0.00154884
-0.00153602
-0.00146144
-0.00124686
-0.000899013
)
;
    }
    procBoundary2to3
    {
        type            processor;
        value           nonuniform List<scalar> 
20
(
9.71009e-19
2.72534e-19
1.38524e-19
1.27333e-19
1.81908e-19
3.20927e-19
-4.6069e-20
-2.99216e-18
-1.94527e-16
-8.82773e-16
0.000134348
0.00032953
0.000714574
0.00158603
0.00146847
0.00147736
0.0014072
0.00123723
0.000962715
0.0006262
)
;
    }
}


// ************************************************************************* //
