/*--------------------------------*- C++ -*----------------------------------*\
| =========                 |                                                 |
| \\      /  F ield         | OpenFOAM: The Open Source CFD Toolbox           |
|  \\    /   O peration     | Version:  4.x                                   |
|   \\  /    A nd           | Web:      www.OpenFOAM.org                      |
|    \\/     M anipulation  |                                                 |
\*---------------------------------------------------------------------------*/
FoamFile
{
    version     2.0;
    format      ascii;
    class       volScalarField;
    location    "0.05";
    object      epsilon;
}
// * * * * * * * * * * * * * * * * * * * * * * * * * * * * * * * * * * * * * //

dimensions      [0 2 -3 0 0 0 0];

internalField   nonuniform List<scalar> 
200
(
24801.5
23731.3
22699.6
21675.9
20642.6
19593.8
18529.6
17464.6
16412.4
15129.1
3847.14
3739.72
3632.66
3524.52
3414
3300.41
3183.69
3064.6
2946.69
2829.61
619.704
622.401
628.646
636.89
646.431
656.754
667.628
678.958
691.856
705.863
119.498
117.664
117.315
118.812
121.998
126.78
133.08
141.01
150.806
160.904
37.6178
36.4547
35.2297
34.1156
33.2524
32.7494
32.7818
33.431
34.7809
36.5028
24.0019
22.3969
20.8401
19.3499
17.9447
16.6446
15.4786
14.4776
13.6716
13.0224
20.2516
17.9456
16.0127
14.3489
12.8793
11.5528
10.3392
9.22451
8.20532
7.27186
16.4867
13.3606
11.1553
9.54247
8.31622
7.34511
6.54473
5.86087
5.25849
4.71108
13.9518
11.0951
9.16458
7.81166
6.82526
6.07313
5.47069
4.96328
4.51525
4.10189
13.4582
10.6729
8.80389
7.50394
6.56372
5.85232
5.28587
4.8101
4.38947
3.99985
13.4258
10.6451
8.77959
7.48251
6.54487
5.83593
5.27183
4.79828
4.37971
3.992
13.8132
10.9756
9.05999
7.71942
6.74411
6.00257
5.41023
4.91239
4.47325
4.06818
16.1668
13.0736
10.8973
9.31066
8.1094
7.16309
6.38715
5.72703
5.14719
4.62113
20.0027
17.6964
15.7649
14.1044
12.6408
11.3246
10.1258
9.03041
8.03424
7.1266
24.0819
22.4394
20.8544
19.3444
17.9289
16.6311
15.4743
14.4854
13.6916
13.059
37.697
36.5094
35.2929
34.2071
33.3988
33.0149
33.1267
33.8169
35.1736
36.8639
120.455
118.843
119.032
120.858
124.185
128.915
135.088
142.831
152.374
162.155
633.56
636.72
642.463
649.922
658.513
667.881
677.797
688.204
700.185
713.1
3942.12
3829.98
3718.68
3606.42
3492.21
3375.09
3254.54
3131.27
3008.66
2885.47
25494.9
24404
23348.8
22299.3
21237.4
20154.5
19050
17939.4
16837.4
15497.4
)
;

boundaryField
{
    walls
    {
        Cmu             0.09;
        kappa           0.41;
        E               9.8;
        type            epsilonWallFunction;
        value           nonuniform List<scalar> 
20
(
24801.5
23731.3
22699.6
21675.9
20642.6
19593.8
18529.6
17464.6
16412.4
15129.1
25494.9
24404
23348.8
22299.3
21237.4
20154.5
19050
17939.4
16837.4
15497.4
)
;
    }
    topInlet
    {
        type            fixedValue;
        value           nonuniform 0();
    }
    bottomInlet
    {
        type            fixedValue;
        value           nonuniform 0();
    }
    outlet
    {
        type            zeroGradient;
    }
    frontBack
    {
        type            empty;
    }
    procBoundary2to1
    {
        type            processor;
        value           nonuniform List<scalar> 
20
(
25952.9
3955.3
622.703
122.164
38.5438
25.6363
23.0704
21.0716
18.3356
17.763
17.7243
18.1715
20.7152
22.8247
25.7636
38.6661
123.052
635.126
4055.54
26662.9
)
;
    }
    procBoundary2to3
    {
        type            processor;
        value           nonuniform List<scalar> 
20
(
13722.7
2702.87
681.974
158.012
36.074
12.1971
6.41541
4.22547
3.73392
3.65307
3.64729
3.70823
4.15501
6.29502
12.2357
36.3883
158.993
688.108
2751.58
14040.9
)
;
    }
}


// ************************************************************************* //
