/*--------------------------------*- C++ -*----------------------------------*\
| =========                 |                                                 |
| \\      /  F ield         | OpenFOAM: The Open Source CFD Toolbox           |
|  \\    /   O peration     | Version:  4.x                                   |
|   \\  /    A nd           | Web:      www.OpenFOAM.org                      |
|    \\/     M anipulation  |                                                 |
\*---------------------------------------------------------------------------*/
FoamFile
{
    version     2.0;
    format      ascii;
    class       volScalarField;
    location    "0.05";
    object      k;
}
// * * * * * * * * * * * * * * * * * * * * * * * * * * * * * * * * * * * * * //

dimensions      [0 2 -2 0 0 0 0];

internalField   nonuniform List<scalar> 
200
(
21.0668
20.4564
19.8591
19.2574
18.6405
18.0036
17.3457
16.6742
15.9987
15.1613
5.90288
5.84033
5.76892
5.69043
5.60603
5.51672
5.42344
5.32723
5.2352
5.16511
1.50748
1.55436
1.60657
1.66218
1.72093
1.78282
1.84837
1.91824
1.99629
2.08071
0.448406
0.452862
0.461602
0.47598
0.496253
0.522883
0.556326
0.597694
0.648417
0.701648
0.258315
0.247576
0.237542
0.228788
0.221867
0.217318
0.216013
0.218623
0.225841
0.235926
0.188667
0.179248
0.170024
0.161089
0.152535
0.144468
0.137044
0.130468
0.124982
0.120403
0.0834197
0.0837211
0.0840199
0.0841297
0.0838787
0.0831256
0.0817815
0.0798191
0.0772638
0.0740917
0.0511864
0.0493665
0.0485624
0.048445
0.0487469
0.0492438
0.0497487
0.0501049
0.0501747
0.0498064
0.0416347
0.0396437
0.0388476
0.0389057
0.039546
0.0405349
0.0416656
0.0427513
0.0436169
0.0440899
0.0399587
0.0379693
0.0371922
0.0372896
0.0379919
0.0390666
0.0403044
0.041514
0.0425144
0.0431307
0.0398662
0.037874
0.0370938
0.0371885
0.0378895
0.0389652
0.0402062
0.041421
0.042428
0.0430523
0.0412314
0.0392279
0.0384185
0.0384656
0.0391012
0.0400954
0.0412408
0.0423493
0.043244
0.0437526
0.050155
0.0482831
0.0474324
0.0472792
0.0475643
0.0480707
0.0486103
0.0490234
0.0491676
0.0488913
0.081714
0.0819524
0.082186
0.0822353
0.0819382
0.0811637
0.0798265
0.0779025
0.0754181
0.0723522
0.186273
0.176941
0.16782
0.158998
0.150569
0.14265
0.135378
0.128948
0.123591
0.119152
0.256577
0.245814
0.235837
0.227194
0.220469
0.216341
0.21534
0.218109
0.22532
0.235196
0.448833
0.453714
0.463643
0.47874
0.499217
0.525396
0.558068
0.59837
0.647696
0.699281
1.52646
1.57373
1.62423
1.67745
1.73336
1.79235
1.85498
1.92209
1.99744
2.07887
5.98675
5.91806
5.84139
5.75812
5.66998
5.57769
5.4816
5.38259
5.28731
5.21189
21.4577
20.8412
20.236
19.625
18.9969
18.3455
17.669
16.9751
16.2737
15.4062
)
;

boundaryField
{
    walls
    {
        type            kqRWallFunction;
        value           nonuniform List<scalar> 
20
(
21.0668
20.4564
19.8591
19.2574
18.6405
18.0036
17.3457
16.6742
15.9987
15.1613
21.4577
20.8412
20.236
19.625
18.9969
18.3455
17.669
16.9751
16.2737
15.4062
)
;
    }
    topInlet
    {
        type            fixedValue;
        value           nonuniform 0();
    }
    bottomInlet
    {
        type            fixedValue;
        value           nonuniform 0();
    }
    outlet
    {
        type            zeroGradient;
    }
    frontBack
    {
        type            empty;
    }
    procBoundary2to1
    {
        type            processor;
        value           nonuniform List<scalar> 
20
(
21.7139
5.95323
1.46859
0.446519
0.269227
0.198176
0.0832953
0.0544476
0.0452865
0.0436271
0.0435369
0.0448942
0.0534756
0.0816513
0.195721
0.267558
0.446847
1.48547
6.04405
22.1082
)
;
    }
    procBoundary2to3
    {
        type            processor;
        value           nonuniform List<scalar> 
20
(
14.192
5.04909
2.04279
0.700825
0.235252
0.11462
0.0704961
0.0492615
0.0444118
0.0435996
0.0435305
0.0441129
0.0484443
0.0688751
0.113433
0.234306
0.697424
2.03899
5.0885
14.4102
)
;
    }
}


// ************************************************************************* //
