/*--------------------------------*- C++ -*----------------------------------*\
| =========                 |                                                 |
| \\      /  F ield         | OpenFOAM: The Open Source CFD Toolbox           |
|  \\    /   O peration     | Version:  4.x                                   |
|   \\  /    A nd           | Web:      www.OpenFOAM.org                      |
|    \\/     M anipulation  |                                                 |
\*---------------------------------------------------------------------------*/
FoamFile
{
    version     2.0;
    format      ascii;
    class       volScalarField;
    location    "0.05";
    object      nut;
}
// * * * * * * * * * * * * * * * * * * * * * * * * * * * * * * * * * * * * * //

dimensions      [0 2 -1 0 0 0 0];

internalField   nonuniform List<scalar> 
200
(
0.00161051
0.00158701
0.00156367
0.0015398
0.00151493
0.00148883
0.00146137
0.00143276
0.00140358
0.00136742
0.000815142
0.000820877
0.00082453
0.00082686
0.000828495
0.00082992
0.000831501
0.000833436
0.000837095
0.000848545
0.000330036
0.000349359
0.000369518
0.000390421
0.00041233
0.000435567
0.00046056
0.000487762
0.00051841
0.000552007
0.000151434
0.000156867
0.000163465
0.000171616
0.000181676
0.000194089
0.00020931
0.000228007
0.000250918
0.000275368
0.000159642
0.000151323
0.000144149
0.000138088
0.000133231
0.000129786
0.000128106
0.000128672
0.000131979
0.000137236
0.000133471
0.000129111
0.000124843
0.000120697
0.000116694
0.000112853
0.000109202
0.000105818
0.000102829
0.00010019
3.09258e-05
3.51524e-05
3.96772e-05
4.43937e-05
4.91648e-05
5.38299e-05
5.82191e-05
6.21603e-05
6.54785e-05
6.79417e-05
1.43027e-05
1.64165e-05
1.90266e-05
2.2135e-05
2.57164e-05
2.9713e-05
3.40341e-05
3.85515e-05
4.30874e-05
4.73905e-05
1.11821e-05
1.27485e-05
1.48203e-05
1.74392e-05
2.06219e-05
2.43494e-05
2.85599e-05
3.31416e-05
3.79202e-05
4.26518e-05
1.06777e-05
1.2157e-05
1.41408e-05
1.66775e-05
1.97913e-05
2.34707e-05
2.76586e-05
3.22462e-05
3.70598e-05
4.18572e-05
1.0654e-05
1.21276e-05
1.4105e-05
1.66346e-05
1.97414e-05
2.34145e-05
2.75974e-05
3.21809e-05
3.69915e-05
4.17874e-05
1.10765e-05
1.26184e-05
1.46621e-05
1.72505e-05
2.04032e-05
2.41043e-05
2.82931e-05
3.28581e-05
3.76246e-05
4.23497e-05
1.40039e-05
1.60486e-05
1.85813e-05
2.16074e-05
2.51083e-05
2.90338e-05
3.32959e-05
3.77676e-05
4.22698e-05
4.6554e-05
3.00431e-05
3.41571e-05
3.85609e-05
4.31525e-05
4.78014e-05
5.23532e-05
5.66378e-05
6.04836e-05
6.37161e-05
6.61095e-05
0.000129673
0.00012557
0.000121544
0.000117617
0.000113805
0.000110119
0.000106593
0.00010331
0.000100406
9.78449e-05
0.000157171
0.000148954
0.000141834
0.000135807
0.00013098
0.000127589
0.000125984
0.000126606
0.000129905
0.000135052
0.000150518
0.000155895
0.000162534
0.000170673
0.000180614
0.000192713
0.000207492
0.000225611
0.000247785
0.000271403
0.000330997
0.000350069
0.000369565
0.000389654
0.000410633
0.000432899
0.000456902
0.000483141
0.000512834
0.00054544
0.000818266
0.000823008
0.000825824
0.000827423
0.000828524
0.000829594
0.000830938
0.000832732
0.000836256
0.000847257
0.00162538
0.00160186
0.00157844
0.00155442
0.00152935
0.0015029
0.00147493
0.00144563
0.00141559
0.0013784
)
;

boundaryField
{
    walls
    {
        type            nutkWallFunction;
        Cmu             0.09;
        kappa           0.41;
        E               9.8;
        value           uniform 0;
    }
    topInlet
    {
        type            calculated;
        value           nonuniform 0();
    }
    bottomInlet
    {
        type            calculated;
        value           nonuniform 0();
    }
    outlet
    {
        type            calculated;
        value           nonuniform 0();
    }
    frontBack
    {
        type            empty;
    }
    procBoundary2to1
    {
        type            processor;
        value           nonuniform List<scalar> 
20
(
0.00163506
0.000806433
0.000311718
0.000146885
0.000169249
0.000137876
2.70663e-05
1.2662e-05
1.00667e-05
9.6436e-06
9.62469e-06
9.98234e-06
1.24241e-05
2.62884e-05
0.000133816
0.000166627
0.000146041
0.000312687
0.00081068
0.00164984
)
;
    }
    procBoundary2to3
    {
        type            processor;
        value           nonuniform List<scalar> 
20
(
0.00132097
0.000848877
0.000550706
0.00027975
0.000138075
9.69401e-05
6.97187e-05
5.16873e-05
4.75417e-05
4.68326e-05
4.67585e-05
4.72287e-05
5.08342e-05
6.78218e-05
9.46436e-05
0.000135784
0.000275332
0.000543773
0.000846916
0.00133102
)
;
    }
}


// ************************************************************************* //
