/*--------------------------------*- C++ -*----------------------------------*\
| =========                 |                                                 |
| \\      /  F ield         | OpenFOAM: The Open Source CFD Toolbox           |
|  \\    /   O peration     | Version:  4.x                                   |
|   \\  /    A nd           | Web:      www.OpenFOAM.org                      |
|    \\/     M anipulation  |                                                 |
\*---------------------------------------------------------------------------*/
FoamFile
{
    version     2.0;
    format      ascii;
    class       volScalarField;
    location    "0.05";
    object      p;
}
// * * * * * * * * * * * * * * * * * * * * * * * * * * * * * * * * * * * * * //

dimensions      [1 -1 -2 0 0 0 0];

internalField   nonuniform List<scalar> 
200
(
3394.25
3354.79
3300.28
3233.79
3157.25
3073.78
2981.75
2889.82
2852.84
2701.13
-275.004
-290.324
-290.6
-268.018
-232.562
-199.281
-162.157
-125.409
-109.65
-76.5925
1602.86
1514.8
1444.58
1373.66
1309.55
1262.7
1207.68
1161.81
1141.29
1047.61
591.494
500.975
447.699
425.276
421.593
431.505
458.938
478.286
486.09
486.488
1296.55
1178.84
1075.68
991.597
934.808
897.905
868.052
838.222
812.01
728.053
1035.42
850.836
724.021
644.804
602.9
583.984
579.365
574.334
568.344
537.069
1231.43
1040.17
909.293
820.48
765.213
732.65
711.566
691.289
671.714
618.859
1196.56
986.474
840.53
741.142
679.711
644.434
623.415
605.303
588.613
542.601
1199.37
984.985
836.765
736.552
674.939
639.637
618.407
600.028
583.147
537.391
1197.55
982.401
833.812
733.507
671.875
636.524
615.128
596.563
579.502
533.467
1194.03
978.84
830.251
730.016
668.47
633.185
611.789
593.218
576.152
530.097
1185.14
970.432
822.075
722.055
660.741
625.698
604.485
586.12
569.256
523.425
1160.12
948.656
801.687
702.166
641.038
606.21
585.271
567.454
551.131
505.042
1156.29
964.635
833.273
744.64
689.395
655.647
631.36
608.099
586.158
530.923
872.325
684.41
561.045
487.072
449.678
435.567
432.642
428.56
422.666
387.103
1122.59
987.849
873.265
790.58
736.071
696.809
660.95
628.163
600.323
519.232
317.201
233.314
187.478
162.418
160.703
177.27
199.568
215.076
223.242
225.07
1294.18
1203.93
1127.53
1044.1
988.624
935.131
881.306
836.253
813.386
717.85
-669.743
-684.21
-681.645
-647.377
-618.728
-586.017
-548.331
-512.528
-496.229
-461.27
3015.68
2972.67
2914.29
2844.41
2762.72
2671.96
2573.54
2475.24
2429.74
2266.73
)
;

boundaryField
{
    walls
    {
        type            calculated;
        value           nonuniform List<scalar> 
20
(
247.212
247.212
247.212
247.212
247.212
247.212
247.212
247.212
247.212
247.212
-244.759
-244.759
-244.759
-244.759
-244.759
-244.759
-244.76
-244.76
-244.76
-244.76
)
;
    }
    topInlet
    {
        type            calculated;
        value           nonuniform 0();
    }
    bottomInlet
    {
        type            calculated;
        value           nonuniform 0();
    }
    outlet
    {
        type            calculated;
        value           nonuniform 0();
    }
    frontBack
    {
        type            empty;
    }
    procBoundary2to1
    {
        type            processor;
        value           nonuniform List<scalar> 
20
(
3409.92
-224.995
1719.08
724.292
1451
1303.66
1523.43
1510.48
1519.66
1518.95
1515.38
1505.35
1474.18
1445.96
1144.7
1281.42
450.787
1411.43
-633.404
3040.18
)
;
    }
    procBoundary2to3
    {
        type            processor;
        value           nonuniform List<scalar> 
20
(
1605.97
123.559
530.744
394.513
440.441
424.499
429.073
388.216
381.424
377.042
373.691
367.525
351.889
341.175
275.148
231.668
125.542
203.692
-269.906
1171.99
)
;
    }
}


// ************************************************************************* //
