/*--------------------------------*- C++ -*----------------------------------*\
| =========                 |                                                 |
| \\      /  F ield         | OpenFOAM: The Open Source CFD Toolbox           |
|  \\    /   O peration     | Version:  4.x                                   |
|   \\  /    A nd           | Web:      www.OpenFOAM.org                      |
|    \\/     M anipulation  |                                                 |
\*---------------------------------------------------------------------------*/
FoamFile
{
    version     2.0;
    format      ascii;
    class       volScalarField;
    location    "0.05";
    object      p_rgh;
}
// * * * * * * * * * * * * * * * * * * * * * * * * * * * * * * * * * * * * * //

dimensions      [1 -1 -2 0 0 0 0];

internalField   nonuniform List<scalar> 
200
(
3162.49
3123.03
3068.52
3002.03
2925.49
2842.02
2749.99
2658.06
2621.08
2469.36
-475.863
-491.184
-491.46
-468.878
-433.422
-400.141
-363.016
-326.269
-310.51
-277.452
1432.91
1344.84
1274.63
1203.7
1139.59
1092.74
1037.72
991.854
971.337
877.65
452.438
361.918
308.642
286.219
282.536
292.449
319.881
339.229
347.033
347.431
1188.4
1070.69
967.529
883.442
826.653
789.75
759.896
730.067
703.854
619.898
958.164
773.583
646.768
567.55
525.646
506.731
502.112
497.08
491.091
459.815
1187
995.733
864.854
776.041
720.774
688.212
667.127
646.851
627.275
574.42
1177.54
967.459
821.515
722.127
660.696
625.42
604.4
586.289
569.599
523.587
1192.16
977.771
829.551
729.338
667.725
632.423
611.193
592.814
575.933
530.177
1195.82
980.665
832.076
731.771
670.139
634.788
613.392
594.827
577.766
531.731
1195.75
980.56
831.971
731.736
670.19
634.906
613.51
594.939
577.873
531.818
1192.28
977.574
829.217
729.197
667.883
632.841
611.628
593.262
576.399
530.567
1178.95
967.482
820.513
720.992
659.864
625.037
604.097
586.28
569.957
523.868
1200.29
1008.63
877.271
788.638
733.393
699.645
675.358
652.097
630.155
574.92
948.813
760.897
637.532
563.56
526.165
512.055
509.129
505.047
499.154
463.59
1229.67
1094.93
980.347
897.663
843.153
803.892
768.032
735.246
707.406
626.314
454.879
370.991
325.155
300.096
298.38
314.948
337.245
352.753
360.919
362.747
1462.45
1372.2
1295.8
1212.37
1156.9
1103.4
1049.58
1004.53
981.658
886.122
-470.876
-485.343
-482.778
-448.51
-419.861
-387.15
-349.463
-313.661
-297.361
-262.403
3245.14
3202.13
3143.76
3073.87
2992.18
2901.42
2803
2704.7
2659.2
2496.19
)
;

boundaryField
{
    walls
    {
        type            fixedValue;
        value           uniform 0;
    }
    topInlet
    {
        type            fixedValue;
        value           nonuniform 0();
    }
    bottomInlet
    {
        type            fixedValue;
        value           nonuniform 0();
    }
    outlet
    {
        type            fixedValue;
        value           nonuniform 0();
    }
    frontBack
    {
        type            empty;
    }
    procBoundary2to1
    {
        type            processor;
        value           nonuniform List<scalar> 
20
(
3178.16
-425.854
1549.13
585.235
1342.85
1226.41
1479
1491.46
1512.45
1517.22
1517.1
1512.5
1493
1489.95
1221.18
1388.5
588.464
1579.7
-434.537
3269.64
)
;
    }
    procBoundary2to3
    {
        type            processor;
        value           nonuniform List<scalar> 
20
(
1374.21
-77.3009
360.786
255.456
332.286
347.246
384.634
369.201
374.21
375.306
375.412
374.667
370.715
385.173
351.635
338.75
263.22
371.964
-71.0386
1401.45
)
;
    }
}


// ************************************************************************* //
