/*--------------------------------*- C++ -*----------------------------------*\
| =========                 |                                                 |
| \\      /  F ield         | OpenFOAM: The Open Source CFD Toolbox           |
|  \\    /   O peration     | Version:  4.x                                   |
|   \\  /    A nd           | Web:      www.OpenFOAM.org                      |
|    \\/     M anipulation  |                                                 |
\*---------------------------------------------------------------------------*/
FoamFile
{
    version     2.0;
    format      ascii;
    class       surfaceScalarField;
    location    "0.05";
    object      phi;
}
// * * * * * * * * * * * * * * * * * * * * * * * * * * * * * * * * * * * * * //

dimensions      [0 3 -1 0 0 0 0];

internalField   nonuniform List<scalar> 
370
(
0.000878307
-3.50805e-05
0.00085648
-4.09903e-05
0.000833543
-4.69563e-05
0.00080937
-5.31398e-05
0.000783968
-5.96618e-05
0.000757431
-6.66458e-05
0.000729957
-7.4076e-05
0.000701775
-8.22486e-05
0.00066964
-9.02847e-05
-8.89447e-05
0.00122265
-9.22251e-06
0.00119645
-1.47945e-05
0.00116975
-2.02512e-05
0.0011425
-2.58964e-05
0.00111463
-3.1786e-05
0.00108595
-3.79703e-05
0.00105646
-4.45888e-05
0.00102601
-5.17952e-05
0.000993406
-5.76807e-05
-5.98099e-05
0.0014477
5.20013e-06
0.00143118
1.72262e-06
0.00141266
-1.73281e-06
0.00139214
-5.37082e-06
0.0013696
-9.25388e-06
0.0013452
-1.35614e-05
0.0013188
-1.81973e-05
0.00129049
-2.34771e-05
0.00126147
-2.86637e-05
-3.67225e-05
0.0015316
9.73818e-06
0.00152571
7.61568e-06
0.00151826
5.71572e-06
0.00150899
3.89322e-06
0.00149766
2.08302e-06
0.001484
9.95946e-08
0.00146791
-2.10778e-06
0.0014492
-4.77511e-06
0.00142836
-7.82098e-06
-1.71385e-05
0.00154741
1.16109e-05
0.00154484
1.01877e-05
0.00154142
9.13482e-06
0.00153698
8.32855e-06
0.00153139
7.67631e-06
0.00152444
7.04323e-06
0.00151591
6.42506e-06
0.00150558
5.55528e-06
0.00149367
4.08637e-06
-3.17282e-06
0.00152676
1.51466e-05
0.00152261
1.43374e-05
0.00151791
1.38389e-05
0.00151273
1.35074e-05
0.00150715
1.32583e-05
0.00150119
1.30029e-05
0.00149488
1.27285e-05
0.00148817
1.22695e-05
0.00148096
1.12961e-05
6.22966e-06
0.00160152
1.92377e-05
0.00159786
1.79942e-05
0.00159478
1.69167e-05
0.00159238
1.59064e-05
0.00159073
1.49118e-05
0.00158983
1.38998e-05
0.00158965
1.29101e-05
0.00159003
1.18874e-05
0.00159069
1.06372e-05
7.40834e-06
0.000655976
1.02059e-05
0.000664513
9.45713e-06
0.00067258
8.84949e-06
0.000680191
8.29547e-06
0.000687364
7.7395e-06
0.000694112
7.15103e-06
0.000700448
6.57439e-06
0.00070635
5.98507e-06
0.000711692
5.29529e-06
3.73789e-06
0.000293502
4.07745e-06
0.0002991
3.85879e-06
0.000304243
3.70705e-06
0.000308978
3.55962e-06
0.000313346
3.37175e-06
0.000317377
3.1204e-06
0.000321093
2.85814e-06
0.000324505
2.57299e-06
0.000327559
2.24155e-06
1.59906e-06
0.000135391
1.0769e-06
0.000138119
1.13157e-06
0.000140614
1.21177e-06
0.000142904
1.26906e-06
0.000145011
1.26522e-06
0.00014695
1.1813e-06
0.000148734
1.07454e-06
0.000150368
9.38253e-07
0.000151829
7.81146e-07
5.79165e-07
0.000135358
-1.92711e-06
0.000138088
-1.59864e-06
0.000140586
-1.28612e-06
0.000142879
-1.02395e-06
0.000144988
-8.43788e-07
0.000146929
-7.60306e-07
0.000148715
-7.11478e-07
0.000150352
-6.98736e-07
0.000151815
-6.81349e-07
-4.42617e-07
0.000293177
-8.09079e-06
0.000298806
-7.22729e-06
0.000303975
-6.4549e-06
0.000308735
-5.78433e-06
0.000313127
-5.2359e-06
0.000317182
-4.81524e-06
0.000320922
-4.45095e-06
0.000324355
-4.13233e-06
0.000327429
-3.75489e-06
-2.59925e-06
0.000654127
-1.73001e-05
0.000662822
-1.5922e-05
0.00067103
-1.46632e-05
0.000678775
-1.35292e-05
0.000686082
-1.25422e-05
0.000692965
-1.16988e-05
0.000699431
-1.09165e-05
0.000705455
-1.01566e-05
0.00071091
-9.21032e-06
-6.37191e-06
0.00159627
-1.32168e-05
0.00159266
-1.23109e-05
0.00158967
-1.16729e-05
0.00158741
-1.12679e-05
0.00158595
-1.10849e-05
0.00158531
-1.10567e-05
0.00158542
-1.10261e-05
0.00158612
-1.08549e-05
0.0015871
-1.01946e-05
-5.50543e-06
0.00152501
-9.50725e-06
0.00152066
-7.95977e-06
0.00151576
-6.77363e-06
0.00151039
-5.90352e-06
0.00150464
-5.33164e-06
0.00149855
-4.96393e-06
0.00149214
-4.61289e-06
0.00148534
-4.06214e-06
0.00147808
-2.92706e-06
3.95206e-06
0.00154696
-7.61838e-06
0.00154431
-5.31406e-06
0.00154076
-3.2199e-06
0.00153617
-1.31571e-06
0.00153038
4.51775e-07
0.00152322
2.20343e-06
0.00151443
4.1711e-06
0.00150385
6.52282e-06
0.00149166
9.25879e-06
1.82239e-05
0.00153139
-2.98801e-06
0.00152537
7.05415e-07
0.00151778
4.37819e-06
0.00150832
8.13832e-06
0.00149681
1.19639e-05
0.00148304
1.59785e-05
0.00146678
2.04232e-05
0.00144789
2.54207e-05
0.00142684
3.03078e-05
3.81112e-05
0.00144686
1.15898e-05
0.00143029
1.72767e-05
0.00141182
2.28458e-05
0.00139127
2.86925e-05
0.0013688
3.44287e-05
0.00134435
4.04352e-05
0.00131788
4.68905e-05
0.00128941
5.389e-05
0.00126014
5.95764e-05
6.15581e-05
0.00122132
3.71359e-05
0.00119536
4.32289e-05
0.00116886
4.9347e-05
0.00114186
5.56932e-05
0.00111404
6.22537e-05
0.0010853
6.91693e-05
0.00105562
7.65741e-05
0.00102482
8.46849e-05
0.000991795
9.2606e-05
9.11428e-05
0.000878079
0.000856309
0.000833393
0.000809197
0.000783648
0.000756812
0.000728922
0.000700197
0.000667447
)
;

boundaryField
{
    walls
    {
        type            calculated;
        value           nonuniform List<scalar> 
20
(
5.60762e-05
6.28173e-05
6.98933e-05
7.73127e-05
8.50645e-05
9.31821e-05
0.00010155
0.000110431
0.00012242
0.000129597
5.80694e-05
6.49987e-05
7.22634e-05
7.98887e-05
8.7803e-05
9.60058e-05
0.000104464
0.00011341
0.000125356
0.000132225
)
;
    }
    topInlet
    {
        type            calculated;
        value           nonuniform 0();
    }
    bottomInlet
    {
        type            calculated;
        value           nonuniform 0();
    }
    outlet
    {
        type            calculated;
        value           nonuniform 0();
    }
    frontBack
    {
        type            empty;
        value           nonuniform 0();
    }
    procBoundary2to1
    {
        type            processor;
        value           nonuniform List<scalar> 
20
(
-0.000899303
-0.0012485
-0.00146212
-0.00153614
-0.00154928
-0.0015303
-0.00160561
-0.000646944
-0.000287373
-0.000132391
-0.000132354
-0.000287014
-0.000644918
-0.00160035
-0.00152872
-0.00154884
-0.00153602
-0.00146144
-0.00124686
-0.000899013
)
;
    }
    procBoundary2to3
    {
        type            processor;
        value           nonuniform List<scalar> 
20
(
0.000628988
0.000964272
0.00123838
0.00140878
0.00147971
0.00147156
0.00158951
0.000715363
0.000329698
0.000152849
0.000152837
0.000329585
0.000714683
0.00158623
0.00146862
0.00147739
0.00140695
0.0012367
0.00096221
0.000626365
)
;
    }
}


// ************************************************************************* //
