/*--------------------------------*- C++ -*----------------------------------*\
| =========                 |                                                 |
| \\      /  F ield         | OpenFOAM: The Open Source CFD Toolbox           |
|  \\    /   O peration     | Version:  4.x                                   |
|   \\  /    A nd           | Web:      www.OpenFOAM.org                      |
|    \\/     M anipulation  |                                                 |
\*---------------------------------------------------------------------------*/
FoamFile
{
    version     2.0;
    format      ascii;
    class       volVectorField;
    location    "0.05";
    object      U;
}
// * * * * * * * * * * * * * * * * * * * * * * * * * * * * * * * * * * * * * //

dimensions      [0 1 -1 0 0 0 0];

internalField   nonuniform List<vector> 
200
(
(11.3712 -0.797845 0)
(11.0981 -0.802087 0)
(10.8119 -0.799646 0)
(10.5102 -0.793179 0)
(10.1922 -0.783924 0)
(9.85916 -0.771639 0)
(9.51164 -0.756574 0)
(9.15523 -0.740858 0)
(8.79833 -0.729766 0)
(8.3283 -0.669086 0)
(15.8076 0.255335 0)
(15.4745 0.240259 0)
(15.136 0.227258 0)
(14.7909 0.216674 0)
(14.4382 0.207714 0)
(14.0763 0.198251 0)
(13.7038 0.189026 0)
(13.321 0.179783 0)
(12.9216 0.176823 0)
(12.4848 0.172774 0)
(18.6247 -0.188403 0)
(18.4259 -0.204742 0)
(18.2005 -0.2162 0)
(17.9498 -0.222674 0)
(17.6736 -0.224717 0)
(17.3724 -0.224525 0)
(17.0464 -0.224337 0)
(16.6957 -0.223173 0)
(16.3231 -0.221051 0)
(15.9529 -0.214096 0)
(19.6363 0.154059 0)
(19.5694 0.141781 0)
(19.4844 0.131436 0)
(19.3775 0.121622 0)
(19.2457 0.110891 0)
(19.0856 0.099389 0)
(18.8948 0.0853389 0)
(18.6713 0.0707868 0)
(18.414 0.058962 0)
(18.1392 0.0386016 0)
(19.8208 -0.0227929 0)
(19.792 -0.0401941 0)
(19.7538 -0.0515686 0)
(19.7038 -0.0579603 0)
(19.6398 -0.0611016 0)
(19.5597 -0.0620393 0)
(19.4608 -0.0604656 0)
(19.34 -0.0577205 0)
(19.1966 -0.0558057 0)
(19.0325 -0.0551485 0)
(19.5667 0.0731796 0)
(19.5168 0.0724058 0)
(19.4596 0.072612 0)
(19.3959 0.0720886 0)
(19.3267 0.0705116 0)
(19.2525 0.0678519 0)
(19.1739 0.0638826 0)
(19.0906 0.058789 0)
(19.0022 0.0522872 0)
(18.9054 0.0328648 0)
(18.2625 0.072988 0)
(18.2175 0.0563953 0)
(18.1787 0.041875 0)
(18.1475 0.0297762 0)
(18.1245 0.0201451 0)
(18.1102 0.0126306 0)
(18.1044 0.00716771 0)
(18.1063 0.00307946 0)
(18.1143 -0.000436434 0)
(18.1207 -0.00524699 0)
(15.9955 0.0673748 0)
(16.2101 0.0562996 0)
(16.4132 0.0477343 0)
(16.6051 0.0408018 0)
(16.7861 0.0349253 0)
(16.9564 0.0297879 0)
(17.1166 0.025322 0)
(17.2666 0.0213677 0)
(17.4061 0.0176694 0)
(17.5277 0.0122136 0)
(15.3709 0.0286871 0)
(15.6787 0.0239676 0)
(15.9611 0.0202685 0)
(16.221 0.0171654 0)
(16.4607 0.0144308 0)
(16.6818 0.0119663 0)
(16.8858 0.00985409 0)
(17.0737 0.00801704 0)
(17.2459 0.00632859 0)
(17.3954 0.00398687 0)
(15.2674 0.0100775 0)
(15.5912 0.00874907 0)
(15.887 0.00773083 0)
(16.1582 0.00680042 0)
(16.4075 0.00584941 0)
(16.637 0.00485896 0)
(16.8482 0.00397611 0)
(17.0423 0.00317651 0)
(17.2197 0.00244466 0)
(17.3737 0.00156378 0)
(15.2634 -0.00169108 0)
(15.5876 -0.000844481 0)
(15.8837 -0.000137442 0)
(16.1552 0.000331817 0)
(16.4048 0.000526365 0)
(16.6345 0.000477288 0)
(16.846 0.000373528 0)
(17.0404 0.000225403 0)
(17.218 9.14676e-05 0)
(17.3723 0.000120331 0)
(15.3529 -0.020259 0)
(15.6624 -0.0160367 0)
(15.9463 -0.0126527 0)
(16.2076 -0.0100051 0)
(16.4485 -0.00801728 0)
(16.6709 -0.00658221 0)
(16.8762 -0.00544951 0)
(17.0653 -0.00455901 0)
(17.2385 -0.00373959 0)
(17.3891 -0.00225232 0)
(15.9482 -0.0597422 0)
(16.1669 -0.0492571 0)
(16.3736 -0.0411058 0)
(16.5688 -0.0346669 0)
(16.753 -0.0294973 0)
(16.9267 -0.0252544 0)
(17.0902 -0.0215557 0)
(17.2433 -0.0183084 0)
(17.3857 -0.0152604 0)
(17.5099 -0.0104867 0)
(18.2025 -0.0631511 0)
(18.1579 -0.0461872 0)
(18.1199 -0.0317767 0)
(18.0899 -0.0204027 0)
(18.0688 -0.0120299 0)
(18.0571 -0.00629795 0)
(18.0546 -0.00265219 0)
(18.0599 -0.000263526 0)
(18.0716 0.0018198 0)
(18.0818 0.00551027 0)
(19.5454 -0.0693942 0)
(19.4931 -0.0689876 0)
(19.4333 -0.0687524 0)
(19.3671 -0.0680621 0)
(19.2956 -0.0667313 0)
(19.2195 -0.0643658 0)
(19.1393 -0.0604518 0)
(19.0548 -0.0554993 0)
(18.9656 -0.0492569 0)
(18.8681 -0.0305188 0)
(19.815 0.0352443 0)
(19.7858 0.0503417 0)
(19.7464 0.0590785 0)
(19.6945 0.0637055 0)
(19.6282 0.0653035 0)
(19.5454 0.0643821 0)
(19.4434 0.0618977 0)
(19.3194 0.0588475 0)
(19.1726 0.0562531 0)
(19.0049 0.0550712 0)
(19.6343 -0.146446 0)
(19.5663 -0.134098 0)
(19.4791 -0.12405 0)
(19.3701 -0.113525 0)
(19.2359 -0.103038 0)
(19.0739 -0.0913354 0)
(18.8815 -0.0783296 0)
(18.6558 -0.0654963 0)
(18.3958 -0.0553165 0)
(18.118 -0.0361463 0)
(18.6148 0.200721 0)
(18.4144 0.216002 0)
(18.1893 0.226413 0)
(17.939 0.23042 0)
(17.6631 0.231279 0)
(17.3619 0.231007 0)
(17.0353 0.229977 0)
(16.6832 0.22765 0)
(16.308 0.224628 0)
(15.9339 0.216754 0)
(15.7888 -0.253033 0)
(15.4591 -0.237737 0)
(15.1236 -0.225162 0)
(14.7815 -0.216295 0)
(14.4307 -0.207669 0)
(14.0688 -0.198917 0)
(13.6946 -0.189845 0)
(13.3083 -0.180476 0)
(12.9037 -0.177333 0)
(12.461 -0.172687 0)
(11.368 0.823311 0)
(11.0957 0.826616 0)
(10.8099 0.823365 0)
(10.5084 0.817075 0)
(10.1895 0.806391 0)
(9.85342 0.79208 0)
(9.50132 0.77504 0)
(9.13874 0.757128 0)
(8.77393 0.743622 0)
(8.29595 0.680125 0)
)
;

boundaryField
{
    walls
    {
        type            noSlip;
    }
    topInlet
    {
        type            fixedValue;
        value           nonuniform 0();
    }
    bottomInlet
    {
        type            fixedValue;
        value           nonuniform 0();
    }
    outlet
    {
        type            zeroGradient;
    }
    frontBack
    {
        type            empty;
    }
    procBoundary2to1
    {
        type            processor;
        value           nonuniform List<vector> 
20
(
(11.6358 -0.785251 0)
(16.1361 0.273714 0)
(18.7955 -0.166396 0)
(19.6889 0.167545 0)
(19.8414 0.00143755 0)
(19.6081 0.078108 0)
(18.3109 0.0917228 0)
(15.768 0.0819845 0)
(15.0326 0.0349065 0)
(14.9097 0.0118744 0)
(14.9053 -0.00272184 0)
(15.0127 -0.0256863 0)
(15.7162 -0.0735353 0)
(18.2512 -0.0822328 0)
(19.5889 -0.0727683 0)
(19.8359 0.0124509 0)
(19.6872 -0.161327 0)
(18.7882 0.180142 0)
(16.1139 -0.271961 0)
(11.6314 0.811657 0)
)
;
    }
    procBoundary2to3
    {
        type            processor;
        value           nonuniform List<vector> 
20
(
(7.6959 -0.414635 0)
(12.1907 0.0769943 0)
(15.7226 -0.197611 0)
(17.9067 -0.0524842 0)
(18.8275 -0.0907606 0)
(18.7504 -0.0229028 0)
(18.0734 -0.0216001 0)
(17.5773 -0.00243554 0)
(17.4663 -0.00141735 0)
(17.4473 -0.000180765 0)
(17.446 0.000651074 0)
(17.4608 0.00187342 0)
(17.5618 0.00300596 0)
(18.0377 0.0212431 0)
(18.7122 0.0237186 0)
(18.7955 0.0905229 0)
(17.8807 0.0540164 0)
(15.6982 0.200043 0)
(12.1611 -0.0770928 0)
(7.66124 0.424556 0)
)
;
    }
}


// ************************************************************************* //
