/*--------------------------------*- C++ -*----------------------------------*\
| =========                 |                                                 |
| \\      /  F ield         | OpenFOAM: The Open Source CFD Toolbox           |
|  \\    /   O peration     | Version:  4.x                                   |
|   \\  /    A nd           | Web:      www.OpenFOAM.org                      |
|    \\/     M anipulation  |                                                 |
\*---------------------------------------------------------------------------*/
FoamFile
{
    version     2.0;
    format      ascii;
    class       volScalarField;
    location    "0.4";
    object      alpha.upper;
}
// * * * * * * * * * * * * * * * * * * * * * * * * * * * * * * * * * * * * * //

dimensions      [0 0 0 0 0 0 0];

internalField   nonuniform List<scalar> 
200
(
3.31705e-61
1.10728e-54
2.27866e-49
1.24619e-46
2.55611e-44
2.84697e-42
1.22453e-22
1.30017e-21
6.54156e-21
1.22242e-20
3.43855e-79
1.48062e-70
1.24606e-63
1.17159e-60
4.17853e-58
8.36082e-56
6.38894e-22
6.21566e-21
2.75221e-20
4.90939e-20
2.64696e-93
4.8454e-83
7.19067e-75
8.91279e-72
4.48169e-69
1.32104e-66
5.93574e-21
5.13787e-20
2.00777e-19
3.50161e-19
6.65737e-102
7.67821e-91
4.82408e-82
5.11343e-79
2.49513e-76
9.0755e-74
9.43348e-20
6.99742e-19
2.37178e-18
4.01957e-18
2.71765e-105
5.22745e-94
3.62328e-85
2.13967e-82
6.58217e-80
4.87881e-77
2.79293e-18
1.66614e-17
4.73203e-17
7.70334e-17
1.04872e-104
6.63669e-94
1.91732e-85
6.18502e-83
1.57873e-80
1.4865e-77
1.94451e-16
8.3288e-16
1.86989e-15
2.72461e-15
1.70165e-102
1.54342e-91
1.92517e-83
3.6524e-81
3.50155e-79
7.08337e-77
2.51737e-14
2.75935e-14
2.69746e-14
2.77237e-14
-7.89803e-99
-2.85804e-90
5.15538e-83
5.15739e-83
5.62393e-83
-1.74401e-12
-4.65192e-12
1.10905e-13
1.53223e-13
1.68075e-13
-3.36903e-96
-5.55269e-87
-3.45061e-79
-4.84744e-10
-1.83789e-09
-3.92632e-09
-5.87135e-09
5.30774e-10
8.5939e-10
9.31931e-10
-7.4962e-95
0.000435895
0.00201342
0.00487445
0.0089557
0.0143786
0.0203006
0.026643
0.0326461
0.0426612
0.880045
0.880926
0.882831
0.885584
0.889054
0.893301
0.897647
0.902076
0.906099
0.912499
1
1
1
1
1
1
1
1
1
1
1
1
1
1
1
1
1
1
1
1
1
1
1
1
1
1
1
1
1
1
1
1
1
1
1
1
1
1
1
1
1
1
1
1
1
1
1
1
1
1
1
1
1
1
1
1
1
1
1
1
1
1
1
1
1
1
1
1
1
1
1
1
1
1
1
1
1
1
1
1
1
1
1
1
1
1
1
1
1
1
)
;

boundaryField
{
    walls
    {
        type            zeroGradient;
    }
    topInlet
    {
        type            fixedValue;
        value           nonuniform 0();
    }
    bottomInlet
    {
        type            fixedValue;
        value           nonuniform 0();
    }
    outlet
    {
        type            inletOutlet;
        inletValue      uniform 0;
        value           nonuniform List<scalar> 
20
(
1.22242e-20
4.90939e-20
3.50161e-19
4.01957e-18
7.70334e-17
2.72461e-15
2.77237e-14
1.68075e-13
9.31931e-10
0.0426612
0.912499
1
1
1
1
1
1
1
1
1
)
;
    }
    frontBack
    {
        type            empty;
    }
    procBoundary3to2
    {
        type            processor;
        value           nonuniform List<scalar> 
20
(
1.18584e-68
5.73763e-89
7.67232e-105
3.27511e-114
1.10925e-117
8.56988e-117
-1.37425e-113
-1.30375e-108
-5.5284e-106
-1.20275e-104
0.881176
1
1
1
1
1
1
1
1
1
)
;
    }
}


// ************************************************************************* //
