/*--------------------------------*- C++ -*----------------------------------*\
| =========                 |                                                 |
| \\      /  F ield         | OpenFOAM: The Open Source CFD Toolbox           |
|  \\    /   O peration     | Version:  4.x                                   |
|   \\  /    A nd           | Web:      www.OpenFOAM.org                      |
|    \\/     M anipulation  |                                                 |
\*---------------------------------------------------------------------------*/
FoamFile
{
    version     2.0;
    format      ascii;
    class       surfaceScalarField;
    location    "0.3";
    object      alphaPhi;
}
// * * * * * * * * * * * * * * * * * * * * * * * * * * * * * * * * * * * * * //

dimensions      [0 3 -1 0 0 0 0];

internalField   nonuniform List<scalar> 
360
(
0
0
0
0
0
0
0
0
0
0
0
0
0
0
0
0
0
0
0
0
0
0
0
0
0
0
0
0
0
0
0
0
0
0
0
0
0
0
0
0
0
0
0
0
0
0
0
0
0
0
0
0
0
0
0
0
0
0
0
0
0
0
0
0
0
0
0
0
0
0
0
0
0
0
0
0
0
0
0
0
0
0
0
0
0
0
0
0
0
0
0
0
0
0
0
0
0
0
0
0
0
0
0
0
0
0
0
0
0
0
0
0
0
0
0
0
0
0
0
0
0
0
0
0
0
0
0
0
0
0
0
0
0
0
0
0
0
0
0
0
0
0
0
0
0
0
0
0
0
0
0
0
0
0
0
0
0
0
0
0
0
0
0
0
0
0
3.8046e-298
1.64995e-298
2.08151e-273
7.29803e-274
6.80778e-271
0
0
0
0
0
0
0
1.16612e-279
7.75027e-241
7.04476e-05
-0.000158748
4.49239e-05
-0.000134881
3.40074e-05
-0.000103928
2.82084e-05
-8.50681e-05
2.46694e-05
-7.38596e-05
2.21414e-05
-6.6404e-05
2.00317e-05
-6.01041e-05
1.80295e-05
-5.3074e-05
1.60998e-05
-4.0766e-05
-2.3385e-05
0.000279033
-6.75482e-05
0.000223887
-7.97348e-05
0.000189918
-6.9959e-05
0.00016771
-6.28598e-05
0.000152412
-5.85611e-05
0.000140627
-5.46193e-05
0.000130474
-4.99517e-05
0.000121285
-4.38846e-05
0.000116087
-3.55678e-05
-4.51497e-05
0.000778393
-4.68838e-05
0.00074094
-4.22821e-05
0.000706506
-3.55252e-05
0.00067149
-2.78432e-05
0.000637392
-2.44637e-05
0.000605346
-2.25731e-05
0.000575652
-2.02575e-05
0.000549463
-1.76958e-05
0.000531816
-1.79207e-05
-3.50855e-05
0.00173007
-5.05502e-05
0.00172577
-3.79838e-05
0.00172187
-3.16277e-05
0.00171837
-2.43426e-05
0.00171258
-1.86743e-05
0.00170445
-1.44428e-05
0.00169488
-1.06808e-05
0.00168476
-7.57511e-06
0.00167363
-6.79811e-06
-1.1448e-05
0.00154247
-5.25271e-05
0.00154413
-3.9639e-05
0.00154475
-3.22541e-05
0.00154622
-2.5807e-05
0.00154755
-2.0011e-05
0.00154831
-1.5202e-05
0.00154877
-1.11367e-05
0.00154904
-7.8459e-06
0.00154808
-5.8406e-06
-5.5287e-06
0.001545
-5.3693e-05
0.00154658
-4.12139e-05
0.00154749
-3.31661e-05
0.00154877
-2.70889e-05
0.00155023
-2.1467e-05
0.00155145
-1.64274e-05
0.00155242
-1.20998e-05
0.00155302
-8.45044e-06
0.00155273
-5.5544e-06
-3.41631e-06
0.00154775
-5.46707e-05
0.00154885
-4.2307e-05
0.00154953
-3.3845e-05
0.00155043
-2.79925e-05
0.00155155
-2.25903e-05
0.0015527
-1.75725e-05
0.00155378
-1.3183e-05
0.00155456
-9.22799e-06
0.00155408
-5.07732e-06
-1.16507e-06
0.00155061
-5.59035e-05
0.00155057
-4.22663e-05
0.00154995
-3.32239e-05
0.00154903
-2.70751e-05
0.00154763
-2.11842e-05
0.00154596
-1.59108e-05
0.00154422
-1.14355e-05
0.00154245
-7.46249e-06
0.00154075
-3.37309e-06
3.47236e-07
0.00154854
-5.32483e-05
0.00154115
-3.48761e-05
0.0015335
-2.55715e-05
0.00152472
-1.82975e-05
0.00151424
-1.0706e-05
0.00150317
-4.84394e-06
0.00149106
6.81856e-07
0.0014779
5.68986e-06
0.00146428
1.02507e-05
1.49908e-05
0.00147754
0.00142081
0.00137308
0.00133048
0.00129292
0.00125935
0.00122984
0.00120424
0.00118257
)
;

boundaryField
{
    walls
    {
        type            calculated;
        value           nonuniform List<scalar> 
40
(
0
0
0
0
0
0
0
3.50789e-279
2.0405e-240
-1.26887e-187
0
0
0
0
0
0
0
0
0
0
0.000262546
0.000160404
0.000114844
9.08671e-05
7.73986e-05
6.8932e-05
6.22138e-05
5.50762e-05
4.26957e-05
-2.49046e-06
2.22545e-05
2.18579e-05
2.21561e-05
2.42984e-05
2.68575e-05
2.87223e-05
3.01924e-05
3.12943e-05
3.19253e-05
3.0602e-05
)
;
    }
    topInlet
    {
        type            calculated;
        value           nonuniform List<scalar> 10(-0.000174246 -0.000370233 -0.000799057 -0.0017264 -0.00154049 -0.00154384 -0.00154678 -0.00154938 -0.00155119 -0.00155304);
    }
    bottomInlet
    {
        type            calculated;
        value           uniform 0;
    }
    outlet
    {
        type            calculated;
        value           nonuniform 0();
    }
    frontBack
    {
        type            empty;
        value           nonuniform 0();
    }
    procBoundary0to1
    {
        type            processor;
        value           nonuniform List<scalar> 
20
(
0
0
0
0
0
0
0
0
3.95623e-270
3.04387e-186
4.19753e-05
0.000137852
0.000521752
0.00165
0.00154216
0.00155062
0.00155183
0.00153923
0.00144964
0.00116695
)
;
    }
}


// ************************************************************************* //
