/*--------------------------------*- C++ -*----------------------------------*\
| =========                 |                                                 |
| \\      /  F ield         | OpenFOAM: The Open Source CFD Toolbox           |
|  \\    /   O peration     | Version:  4.x                                   |
|   \\  /    A nd           | Web:      www.OpenFOAM.org                      |
|    \\/     M anipulation  |                                                 |
\*---------------------------------------------------------------------------*/
FoamFile
{
    version     2.0;
    format      ascii;
    class       volScalarField;
    location    "0.3";
    object      k;
}
// * * * * * * * * * * * * * * * * * * * * * * * * * * * * * * * * * * * * * //

dimensions      [0 2 -2 0 0 0 0];

internalField   nonuniform List<scalar> 
200
(
5.23228
10.9774
16.2017
20.3605
23.3785
25.3989
26.6359
27.2519
27.4473
27.4
0.647876
1.13058
1.73776
2.37809
2.96611
3.47782
3.89524
4.26613
4.58595
4.85307
0.387182
0.41535
0.456966
0.508174
0.562682
0.616454
0.6669
0.714211
0.756595
0.794499
0.373385
0.372106
0.371788
0.37218
0.372802
0.373209
0.373124
0.372423
0.370927
0.368666
0.372822
0.369316
0.365567
0.361554
0.357259
0.352634
0.347653
0.342307
0.336597
0.330598
0.371391
0.364378
0.355468
0.345141
0.333889
0.322122
0.310157
0.298221
0.28649
0.27536
0.351263
0.312017
0.269822
0.231269
0.198631
0.171981
0.150563
0.133505
0.120122
0.109994
0.814157
1.00669
1.03812
1.01785
0.984754
0.951021
0.919966
0.891728
0.863483
0.811067
16.7145
15.8877
12.9722
10.9268
9.62482
8.74443
8.07039
7.48677
6.92541
6.14161
127.374
87.4089
62.002
49.0046
41.6316
36.8176
33.1178
29.8573
26.6405
22.7758
128.509
87.7016
62.0854
49.0414
41.6525
36.8144
33.0777
29.7734
26.5219
22.6899
17.0374
16.1103
13.1182
11.0385
9.71938
8.82623
8.13937
7.54209
6.96776
6.17784
0.835633
1.03462
1.06571
1.04379
1.00896
0.973651
0.941177
0.911602
0.88194
0.827359
0.350473
0.31019
0.267282
0.228436
0.195823
0.169392
0.14829
0.131591
0.118581
0.108798
0.371364
0.364173
0.355016
0.344409
0.33287
0.320826
0.308603
0.296435
0.284502
0.273212
0.372889
0.369378
0.365603
0.361543
0.357182
0.352475
0.347398
0.341942
0.336109
0.329985
0.373474
0.372274
0.372039
0.372501
0.373179
0.37362
0.373549
0.372825
0.371261
0.369005
0.387854
0.417189
0.460181
0.512764
0.568677
0.623664
0.675384
0.723598
0.766855
0.806358
0.659279
1.15944
1.78496
2.44019
3.04143
3.56118
3.98948
4.37205
4.69965
4.97096
5.3993
11.3206
16.6778
20.9175
23.9735
26.0029
27.2242
27.813
27.9835
27.9174
)
;

boundaryField
{
    walls
    {
        type            kqRWallFunction;
        value           nonuniform List<scalar> 
40
(
127.374
87.4089
62.002
49.0046
41.6316
36.8176
33.1178
29.8573
26.6405
22.7758
5.23228
10.9774
16.2017
20.3605
23.3785
25.3989
26.6359
27.2519
27.4473
27.4
128.509
87.7016
62.0854
49.0414
41.6525
36.8144
33.0777
29.7734
26.5219
22.6899
5.3993
11.3206
16.6778
20.9175
23.9735
26.0029
27.2242
27.813
27.9835
27.9174
)
;
    }
    topInlet
    {
        type            fixedValue;
        value           uniform 0.375;
    }
    bottomInlet
    {
        type            fixedValue;
        value           uniform 0.375;
    }
    outlet
    {
        type            zeroGradient;
    }
    frontBack
    {
        type            empty;
    }
    procBoundary0to1
    {
        type            processor;
        value           nonuniform List<scalar> 
20
(
27.3646
5.28181
0.917159
0.381019
0.327826
0.269723
0.106006
0.55285
2.04616
3.27749
3.26808
2.04659
0.56101
0.104861
0.267523
0.327158
0.381663
0.931226
5.39791
27.8792
)
;
    }
}


// ************************************************************************* //
