/*--------------------------------*- C++ -*----------------------------------*\
| =========                 |                                                 |
| \\      /  F ield         | OpenFOAM: The Open Source CFD Toolbox           |
|  \\    /   O peration     | Version:  4.x                                   |
|   \\  /    A nd           | Web:      www.OpenFOAM.org                      |
|    \\/     M anipulation  |                                                 |
\*---------------------------------------------------------------------------*/
FoamFile
{
    version     2.0;
    format      ascii;
    class       volScalarField;
    location    "0.3";
    object      p_rgh;
}
// * * * * * * * * * * * * * * * * * * * * * * * * * * * * * * * * * * * * * //

dimensions      [1 -1 -2 0 0 0 0];

internalField   nonuniform List<scalar> 
200
(
3316.63
3168.71
3182.09
3464.21
3825.62
4071
4257.98
4392.71
4462.8
4260.44
4073.55
3866.08
2316.44
1398.17
848.305
514.638
175.234
-130.332
-306.291
-387.734
4793.09
5025.22
3214.33
2433.65
2420.07
2569.66
2651.73
2672.13
2612.47
2512.17
5823.42
6297.44
4091.87
3042.2
2848.79
2693.22
2369.35
1968.25
1603.15
1486.71
6962
7542.24
4878.51
3624.55
3394.65
3229.67
2941.43
2647.09
2440.16
2443.23
8203.75
8805.87
5649.45
4217.79
3909.11
3675.35
3338.82
2970
2593.17
2392.7
9758.56
9982.4
6667.01
5174.33
4597.65
4107.59
3617.66
3124.8
2513.12
1851.41
12029.4
9438.19
6979.52
5961.07
5347.94
4832.42
4334.69
3762.11
2780.28
644.943
17322.1
10841.1
7984.74
6455.48
5549.55
4961.02
4486.91
3976.02
3016.62
-32.0247
11840.4
7064.97
4999.36
3927.01
3327.06
2952.35
2659.58
2355.03
1834.57
-75.8184
11993.4
7120.15
5022.87
3940.22
3338.09
2961.5
2664.37
2351.65
1817.59
-107.881
17642.3
10984.4
8055.75
6500.41
5586.4
4991.58
4507.79
3981.03
2996.23
-78.9072
12261.7
9597.52
7073.07
6024.63
5398.33
4871.31
4360.65
3770.51
2762.86
603.499
9935.69
10130
6732.81
5209.1
4623.25
4127.68
3631.56
3129.36
2504.83
1832.5
8346.34
8942.74
5719.74
4260.25
3947.07
3711.43
3368.41
2987.85
2594.62
2382.11
7083.29
7663.83
4943.87
3663.23
3428.54
3261.14
2967.77
2669.4
2464.77
2469.07
5928.84
6403.44
4150.58
3079.14
2880.73
2714.46
2369.93
1943.95
1565.7
1481.23
4887.31
5113.58
3262.1
2475.78
2482.46
2641.84
2722.13
2720.08
2660.27
2531.78
4168.15
3935.26
2319.63
1365.22
830.341
492.723
149.959
-139.752
-323.079
-420.486
3422.23
3296.67
3310.39
3598.71
3944.08
4185.23
4368.43
4503.46
4572.67
4376.25
)
;

boundaryField
{
    walls
    {
        type            fixedValue;
        value           uniform 0;
    }
    topInlet
    {
        type            fixedValue;
        value           uniform 0;
    }
    bottomInlet
    {
        type            fixedValue;
        value           uniform 0;
    }
    outlet
    {
        type            fixedValue;
        value           nonuniform 0();
    }
    frontBack
    {
        type            empty;
    }
    procBoundary0to1
    {
        type            processor;
        value           nonuniform List<scalar> 
20
(
2009.28
-531.921
2029.07
1826.42
2892.98
3319.37
3950.43
3178.01
2319.74
2076.44
2069.01
2301.17
3154.92
3951.43
3314.94
2903.55
1839.92
2051.21
-574.269
2164.53
)
;
    }
}


// ************************************************************************* //
