/*--------------------------------*- C++ -*----------------------------------*\
| =========                 |                                                 |
| \\      /  F ield         | OpenFOAM: The Open Source CFD Toolbox           |
|  \\    /   O peration     | Version:  4.x                                   |
|   \\  /    A nd           | Web:      www.OpenFOAM.org                      |
|    \\/     M anipulation  |                                                 |
\*---------------------------------------------------------------------------*/
FoamFile
{
    version     2.0;
    format      ascii;
    class       volScalarField;
    location    "0.2";
    object      epsilon;
}
// * * * * * * * * * * * * * * * * * * * * * * * * * * * * * * * * * * * * * //

dimensions      [0 2 -3 0 0 0 0];

internalField   nonuniform List<scalar> 
200
(
3069.03
9326.76
16723.9
23561
28990.3
32829.5
35258
36489.4
36883.7
36789.8
183.929
571.168
1117.81
1719.87
2267.83
2726.04
3071.18
3365.9
3603.99
3785.64
24.7409
50.7725
92.3195
144.13
197.431
246.42
287.929
322.662
349.904
370.897
15.3125
17.0272
20.3335
25.176
31.0462
37.3224
43.4798
49.1737
54.0766
58.0991
14.843
15.0323
15.5025
16.2336
17.1698
18.238
19.367
20.496
21.5744
22.5869
18.4317
23.5935
28.5135
32.4679
35.346
37.2753
38.4442
39.0246
39.145
38.9326
153.615
244.113
270.448
262.667
242.279
219.636
198.663
180.342
164.393
149.398
6625.42
7180.53
6262.74
5410.9
4796.46
4353.74
4009.27
3713.9
3428.88
3038.36
256437
198129
136811
103098
84289.3
72468.4
63786.5
56478.7
49615
41188.1
3.28106e+06
1.86526e+06
1.11437e+06
783054
613176
509976
435084
372453
313924
248162
3.32501e+06
1.87464e+06
1.11662e+06
783936
613638
509910
434295
370884
311830
246760
262869
201629
138748
104435
85344.3
73324.2
64456.5
56966
49943.4
41465.7
6873.31
7421.11
6455.5
5569.34
4932.55
4473.59
4115.4
3807.19
3509.65
3106.71
160.544
253.441
278.748
269.122
247.161
223.42
201.734
182.957
166.712
151.502
18.6697
24.1131
29.2473
33.3312
36.2705
38.2142
39.3679
39.9148
39.9911
39.7304
14.8597
15.0773
15.5871
16.364
17.3478
18.4609
19.6294
20.7901
21.8924
22.9261
15.3561
17.1742
20.6355
25.6606
31.7179
38.1582
44.4483
50.2236
55.1486
59.2294
25.3225
52.6531
95.8813
149.329
204.095
254.125
296.559
331.817
359.467
381.37
193.004
598.731
1167.63
1789.06
2353.79
2821.6
3179.14
3486.88
3732.47
3917.44
3217.15
9767.6
17466.4
24534.3
30104
34007.4
36432.4
37622.2
37969.8
37836.7
)
;

boundaryField
{
    walls
    {
        Cmu             0.09;
        kappa           0.41;
        E               9.8;
        type            epsilonWallFunction;
        value           nonuniform List<scalar> 
40
(
3.28106e+06
1.86526e+06
1.11437e+06
783054
613176
509976
435084
372453
313924
248162
3069.03
9326.76
16723.9
23561
28990.3
32829.5
35258
36489.4
36883.7
36789.8
3.32501e+06
1.87464e+06
1.11662e+06
783936
613638
509910
434295
370884
311830
246760
3217.15
9767.6
17466.4
24534.3
30104
34007.4
36432.4
37622.2
37969.8
37836.7
)
;
    }
    topInlet
    {
        type            fixedValue;
        value           uniform 14.855;
    }
    bottomInlet
    {
        type            fixedValue;
        value           uniform 14.855;
    }
    outlet
    {
        type            zeroGradient;
    }
    frontBack
    {
        type            empty;
    }
    procBoundary0to1
    {
        type            processor;
        value           nonuniform List<scalar> 
20
(
36716.6
4241.92
464.127
71.3277
24.615
38.1986
126.771
1628.04
9567.89
21234.4
21133.2
9572.3
1654.62
128.226
38.9457
24.991
72.741
476.617
4372.77
37757.1
)
;
    }
}


// ************************************************************************* //
