/*--------------------------------*- C++ -*----------------------------------*\
| =========                 |                                                 |
| \\      /  F ield         | OpenFOAM: The Open Source CFD Toolbox           |
|  \\    /   O peration     | Version:  4.x                                   |
|   \\  /    A nd           | Web:      www.OpenFOAM.org                      |
|    \\/     M anipulation  |                                                 |
\*---------------------------------------------------------------------------*/
FoamFile
{
    version     2.0;
    format      ascii;
    class       surfaceScalarField;
    location    "0.1";
    object      alphaPhi;
}
// * * * * * * * * * * * * * * * * * * * * * * * * * * * * * * * * * * * * * //

dimensions      [0 3 -1 0 0 0 0];

internalField   nonuniform List<scalar> 
370
(
6.60031e-57
-2.20514e-70
1.11625e-51
-1.01252e-63
5.171e-47
-9.55354e-58
7.5489e-43
-2.15714e-52
3.89392e-39
-1.32856e-47
7.81565e-36
-2.51229e-43
6.65053e-33
-1.63357e-39
2.57876e-30
-4.00719e-36
4.90582e-28
-4.08316e-33
-1.86788e-30
7.68552e-69
-4.11933e-78
2.95543e-62
-8.08475e-71
2.37993e-56
-2.9131e-64
4.6379e-51
-2.37411e-58
2.48213e-46
-5.42017e-53
4.09403e-42
-3.74837e-48
2.33052e-38
-8.61809e-44
5.00886e-35
-7.0583e-40
4.47647e-32
-2.24052e-36
-2.94257e-33
6.46654e-76
2.32296e-78
7.82127e-69
9.41713e-72
2.03217e-62
-8.16987e-68
1.27639e-56
-1.8235e-61
2.33584e-51
-7.5476e-56
1.32839e-46
-9.0311e-51
2.55197e-42
-3.39693e-46
1.75977e-38
-4.68589e-42
4.73216e-35
-2.53527e-38
-5.70479e-35
4.6816e-77
2.97675e-79
1.93042e-70
9.63668e-73
7.16357e-65
2.69744e-67
5.12653e-59
1.32382e-61
1.22257e-53
1.70733e-56
9.89696e-49
8.07378e-53
2.74578e-44
-9.34313e-48
2.88473e-40
-2.69091e-43
1.21875e-36
-2.16076e-39
-6.59953e-36
5.96186e-78
4.47354e-80
2.28776e-71
1.5088e-73
1.53848e-65
9.1186e-68
4.8918e-60
2.65178e-62
1.64542e-54
8.25663e-57
1.88178e-49
8.71973e-52
6.89014e-45
2.94262e-47
8.57154e-41
3.22071e-43
4.05105e-37
1.22584e-39
1.53296e-36
-1.69877e-78
-1.68533e-80
-1.148e-70
-1.08104e-72
-5.05139e-64
-4.60576e-66
-3.97043e-58
-3.54598e-60
-5.0904e-53
-4.48031e-55
-1.58629e-48
-1.37586e-50
-9.67081e-45
-8.2638e-47
8.91989e-41
7.42062e-43
7.38621e-37
5.87803e-39
1.25003e-35
-2.46878e-73
-2.96557e-75
-2.08512e-66
-2.34819e-68
-3.28038e-60
-3.47978e-62
-1.10379e-54
-1.10267e-56
-6.77366e-50
-6.35114e-52
-1.23677e-45
-1.08195e-47
-8.07243e-42
-6.56652e-44
-1.48186e-38
-1.11251e-40
-9.51902e-36
-6.52617e-38
-1.24755e-35
-6.48038e-66
-1.00825e-67
-2.3628e-60
-3.36269e-62
-3.0996e-55
-4.07837e-57
-1.45721e-50
-1.77729e-52
-1.9913e-46
-2.24251e-48
-1.141e-42
-1.17611e-44
-3.2314e-39
-3.03726e-41
-3.2023e-36
-2.72241e-38
-1.4371e-33
-1.09157e-35
-2.23418e-33
-1.49135e-62
-2.07181e-64
-1.27497e-57
-1.64488e-59
-5.81306e-53
-7.08284e-55
-1.31395e-48
-1.51379e-50
-1.09675e-44
-1.18028e-46
-4.58661e-41
-4.51164e-43
-1.13954e-37
-1.01572e-39
-9.99377e-35
-7.94986e-37
-4.80311e-32
-3.33596e-34
-9.51557e-32
-1.62339e-61
-1.29114e-63
-1.02448e-56
-8.3927e-59
-3.66984e-52
-3.16218e-54
-7.01869e-48
-6.2324e-50
-5.20325e-44
-4.53967e-46
-2.05884e-40
-1.65571e-42
-5.12816e-37
-3.70956e-39
-4.40503e-34
-2.7584e-36
-2.16134e-31
-1.10796e-33
-2.77583e-31
0.000126406
-1.92723e-06
0.000128005
-1.59878e-06
0.000129291
-1.28636e-06
0.000130316
-1.02424e-06
0.00013116
-8.44259e-07
0.000131921
-7.60881e-07
0.000132634
-7.12669e-07
0.000133334
-7.00481e-07
0.000134055
-7.20677e-07
-8.35431e-07
0.000293177
-8.09099e-06
0.000298806
-7.22753e-06
0.000303974
-6.45532e-06
0.000308735
-5.78501e-06
0.000313128
-5.23728e-06
0.000317185
-4.81803e-06
0.00032093
-4.45756e-06
0.000324376
-4.14582e-06
0.000327527
-3.87188e-06
-3.69095e-06
0.000654127
-1.73004e-05
0.000662821
-1.59224e-05
0.00067103
-1.4664e-05
0.000678776
-1.35307e-05
0.000686084
-1.25455e-05
0.000692972
-1.17062e-05
0.000699449
-1.09346e-05
0.000705504
-1.02002e-05
0.000711116
-9.48468e-06
-8.82706e-06
0.00159627
-1.32172e-05
0.00159266
-1.23116e-05
0.00158967
-1.16744e-05
0.00158741
-1.12709e-05
0.00158595
-1.10917e-05
0.00158532
-1.10727e-05
0.00158545
-1.10675e-05
0.00158621
-1.09606e-05
0.00158742
-1.06868e-05
-1.02092e-05
0.00152501
-9.50769e-06
0.00152066
-7.96049e-06
0.00151576
-6.77527e-06
0.0015104
-5.90701e-06
0.00150464
-5.3401e-06
0.00149855
-4.9835e-06
0.00149215
-4.65887e-06
0.00148534
-4.15565e-06
0.00147802
-3.36776e-06
-2.18916e-06
0.00154696
-7.61892e-06
0.00154431
-5.31481e-06
0.00154076
-3.2217e-06
0.00153617
-1.3195e-06
0.00153039
4.42818e-07
0.00152322
2.18327e-06
0.00151444
4.12288e-06
0.0015038
6.47695e-06
0.00149104
9.39962e-06
1.30448e-05
0.00153139
-2.98847e-06
0.00152537
7.04643e-07
0.00151778
4.37639e-06
0.00150832
8.13476e-06
0.00149681
1.19552e-05
0.00148303
1.5961e-05
0.00146677
2.03882e-05
0.00144775
2.54916e-05
0.00142581
3.1338e-05
3.80135e-05
0.00144686
1.15893e-05
0.00143029
1.72761e-05
0.00141182
2.28442e-05
0.00139127
2.86901e-05
0.0013688
3.44231e-05
0.00134434
4.04232e-05
0.00131789
4.68407e-05
0.0012895
5.38763e-05
0.00125923
6.16113e-05
7.01014e-05
0.00122132
3.71357e-05
0.00119537
4.32287e-05
0.00116886
4.93464e-05
0.00114186
5.56924e-05
0.00111403
6.22516e-05
0.00108529
6.91626e-05
0.00105559
7.65466e-05
0.00102493
8.45385e-05
0.000993385
9.31519e-05
0.00010239
0.000878082
0.000856311
0.000833394
0.000809198
0.000783645
0.000756802
0.000728851
0.000700064
0.000670726
)
;

boundaryField
{
    walls
    {
        type            calculated;
        value           nonuniform List<scalar> 
20
(
4.21402e-58
8.187e-53
4.33594e-48
7.2109e-44
4.22519e-40
9.61515e-37
9.25647e-34
4.05632e-31
8.71161e-29
9.80292e-27
5.80695e-05
6.49989e-05
7.22636e-05
7.98891e-05
8.78042e-05
9.60057e-05
0.000104497
0.000113325
0.00012249
0.000132004
)
;
    }
    topInlet
    {
        type            calculated;
        value           nonuniform 0();
    }
    bottomInlet
    {
        type            calculated;
        value           nonuniform 0();
    }
    outlet
    {
        type            calculated;
        value           nonuniform 0();
    }
    frontBack
    {
        type            empty;
        value           nonuniform 0();
    }
    procBoundary2to1
    {
        type            processor;
        value           nonuniform List<scalar> 
20
(
-9.04619e-63
-3.52782e-76
-1.26056e-83
-1.55151e-84
-2.39211e-85
-6.27815e-86
8.6285e-81
8.01589e-72
9.02769e-68
1.40836e-66
-0.000124475
-0.000287013
-0.000644917
-0.00160035
-0.00152872
-0.00154884
-0.00153602
-0.00146144
-0.00124686
-0.000899016
)
;
    }
    procBoundary2to3
    {
        type            processor;
        value           nonuniform List<scalar> 
20
(
4.89231e-26
1.79666e-29
5.28008e-32
2.17327e-33
8.02965e-34
1.70438e-33
-2.03767e-33
-3.39783e-31
-1.67609e-29
-8.15811e-29
0.00013489
0.000330382
0.000716253
0.0015888
0.00147
0.0014758
0.00140085
0.00122714
0.000961096
0.000641112
)
;
    }
}


// ************************************************************************* //
