/*--------------------------------*- C++ -*----------------------------------*\
| =========                 |                                                 |
| \\      /  F ield         | OpenFOAM: The Open Source CFD Toolbox           |
|  \\    /   O peration     | Version:  4.x                                   |
|   \\  /    A nd           | Web:      www.OpenFOAM.org                      |
|    \\/     M anipulation  |                                                 |
\*---------------------------------------------------------------------------*/
FoamFile
{
    version     2.0;
    format      ascii;
    class       volScalarField;
    location    "0.1";
    object      p;
}
// * * * * * * * * * * * * * * * * * * * * * * * * * * * * * * * * * * * * * //

dimensions      [1 -1 -2 0 0 0 0];

internalField   nonuniform List<scalar> 
200
(
3395.09
3355.64
3301.12
3234.64
3158.11
3074.55
2983.55
2888.89
2791.34
2693.26
-275.422
-290.728
-290.994
-268.447
-232.984
-199.749
-163.171
-125.296
-90.7306
-56.292
1603.25
1515.19
1444.98
1374.08
1309.96
1263.07
1208.29
1159.18
1113.77
1067.1
591.352
500.83
447.565
425.138
421.434
431.285
458.404
478.487
491.757
513.428
1296.79
1179.07
1075.89
991.796
934.96
897.93
867.827
836.45
804.485
762.389
1035.41
850.816
723.996
644.778
602.854
583.883
579.119
574.095
568.199
565.043
1231.55
1040.29
909.407
820.574
765.247
732.529
711.088
689.851
667.704
643.197
1196.64
986.549
840.59
741.178
679.694
644.295
623.026
604.463
586.533
568.797
1199.45
985.062
836.829
736.593
674.927
639.498
618.003
599.138
580.817
562.598
1197.64
982.48
833.878
733.549
671.864
636.386
614.722
595.665
577.133
558.695
1194.12
978.918
830.317
730.058
668.458
633.046
611.382
592.318
573.771
555.326
1185.22
970.509
822.14
722.095
660.729
625.559
604.079
585.221
566.88
548.676
1160.2
948.73
801.746
702.2
641.019
606.069
584.874
566.587
549.008
531.85
1156.41
964.761
833.395
744.737
689.429
655.536
630.943
606.808
581.955
556.299
872.306
684.384
561.023
487.043
449.629
435.427
432.243
428.069
423.054
418.836
1122.83
988.074
873.487
790.776
736.215
696.858
660.894
626.6
590.585
552.102
317.048
233.176
187.339
162.269
160.54
176.935
199.048
215.174
231.223
248.773
1294.59
1204.34
1127.96
1044.51
989.026
935.602
881.844
833.59
786.5
739.145
-670.156
-684.614
-682.085
-647.798
-619.155
-586.523
-549.331
-512.379
-477.345
-443.921
3016.54
2973.53
2915.15
2845.27
2763.59
2672.77
2575.22
2473.96
2370.23
2265.28
)
;

boundaryField
{
    walls
    {
        type            calculated;
        value           nonuniform List<scalar> 
20
(
247.212
247.212
247.212
247.212
247.212
247.212
247.212
247.212
247.212
247.212
-244.76
-244.76
-244.76
-244.76
-244.76
-244.76
-244.76
-244.76
-244.76
-244.76
)
;
    }
    topInlet
    {
        type            calculated;
        value           nonuniform 0();
    }
    bottomInlet
    {
        type            calculated;
        value           nonuniform 0();
    }
    outlet
    {
        type            calculated;
        value           nonuniform 0();
    }
    frontBack
    {
        type            empty;
    }
    procBoundary2to1
    {
        type            processor;
        value           nonuniform List<scalar> 
20
(
3410.75
-225.385
1719.5
724.12
1451.22
1303.67
1523.53
1510.56
1519.74
1519.04
1515.46
1505.43
1474.26
1446.06
1144.69
1281.65
450.632
1411.82
-633.826
3041.03
)
;
    }
    procBoundary2to3
    {
        type            processor;
        value           nonuniform List<scalar> 
20
(
2594.84
-25.5561
1022.56
527.592
729.834
563.2
621.541
554.599
547.755
543.599
540.207
533.769
518.025
533.869
415.693
520.564
259.696
693.92
-414.156
2159.4
)
;
    }
}


// ************************************************************************* //
