/*--------------------------------*- C++ -*----------------------------------*\
| =========                 |                                                 |
| \\      /  F ield         | OpenFOAM: The Open Source CFD Toolbox           |
|  \\    /   O peration     | Version:  4.x                                   |
|   \\  /    A nd           | Web:      www.OpenFOAM.org                      |
|    \\/     M anipulation  |                                                 |
\*---------------------------------------------------------------------------*/
FoamFile
{
    version     2.0;
    format      ascii;
    class       surfaceScalarField;
    location    "0.3";
    object      alphaPhi;
}
// * * * * * * * * * * * * * * * * * * * * * * * * * * * * * * * * * * * * * //

dimensions      [0 3 -1 0 0 0 0];

internalField   nonuniform List<scalar> 
370
(
3.07171e-151
-1.87454e-194
1.58061e-135
-2.84133e-174
2.12341e-121
-4.36828e-156
1.04992e-108
-9.78927e-140
2.54574e-97
-4.56674e-125
3.86468e-87
-6.26166e-112
4.66385e-78
-3.49997e-100
5.41382e-70
-1.03788e-89
7.41785e-63
-2.1579e-80
-3.9733e-72
6.53327e-193
-2.59683e-220
8.29348e-173
-1.91903e-198
1.08821e-154
-1.21672e-178
2.10471e-138
-9.73355e-161
8.53197e-124
-1.92375e-144
1.0204e-110
-1.15674e-129
4.9932e-99
-2.71063e-116
1.29731e-88
-2.98813e-104
2.36576e-79
-1.96155e-93
-9.38018e-84
4.07652e-218
1.4644e-220
1.85649e-196
2.23529e-199
8.48778e-177
-5.84769e-189
5.23305e-159
-1.59901e-170
8.29045e-143
-7.9873e-154
4.09941e-128
-1.33853e-138
8.02666e-115
-7.62976e-125
7.44996e-103
-2.41956e-112
4.14295e-92
-5.33478e-101
-9.64563e-91
2.8313e-219
1.80026e-221
3.98298e-198
1.98831e-200
5.12741e-186
1.93072e-188
4.49539e-168
1.16084e-170
1.2938e-151
1.8068e-154
1.46687e-136
1.19664e-140
6.16722e-123
-2.53094e-128
1.48953e-110
-1.4849e-115
2.56452e-99
-4.44765e-104
-1.06359e-93
2.87493e-220
2.15724e-222
2.86196e-199
1.88749e-201
1.19627e-186
7.09033e-189
6.55717e-169
3.55456e-171
9.32533e-153
4.67941e-155
9.19676e-139
4.26158e-141
1.86645e-125
7.9712e-128
4.72995e-113
1.77726e-115
8.33856e-102
2.52324e-104
2.47054e-94
4.12803e-221
4.09537e-223
3.22004e-200
3.03222e-202
-1.20695e-185
-1.10047e-187
-9.86901e-168
-8.814e-170
-1.04858e-151
-9.22911e-154
-2.76317e-137
-2.39662e-139
-1.38018e-124
-1.17938e-126
3.10963e-112
2.58696e-114
5.7865e-101
4.60496e-103
4.81317e-93
-8.74879e-214
-1.05093e-215
-3.0862e-193
-3.47556e-195
-1.12296e-174
-1.19122e-176
-6.09095e-158
-6.08478e-160
-5.22045e-143
-4.89482e-145
-1.42358e-129
-1.24538e-131
-1.80225e-117
-1.46604e-119
-1.01819e-106
-7.64407e-109
-3.79968e-97
-2.60504e-99
-5.84314e-91
-1.00686e-191
-1.56652e-193
-2.2279e-175
-3.17071e-177
-2.86054e-160
-3.76383e-162
-2.37763e-146
-2.89986e-148
-1.14373e-133
-1.28802e-135
-5.02131e-122
-5.17583e-124
-2.55035e-111
-2.39712e-113
-1.17216e-101
-9.96502e-104
-6.91851e-93
-5.25504e-95
-4.444e-87
-4.89105e-184
-6.79477e-186
-2.62741e-169
-3.38969e-171
-1.98096e-155
-2.41368e-157
-1.98628e-142
-2.28836e-144
-2.02012e-130
-2.17398e-132
-2.89408e-119
-2.84677e-121
-6.92646e-109
-6.17381e-111
-1.75138e-99
-1.39319e-101
-7.65482e-91
-5.31659e-93
-4.72788e-85
-1.25587e-181
-9.98834e-184
-2.43115e-167
-1.99164e-169
-8.20329e-154
-7.06852e-156
-4.54953e-141
-4.03985e-143
-3.03382e-129
-2.64691e-131
-3.32515e-118
-2.67407e-120
-6.72486e-108
-4.86456e-110
-1.47049e-98
-9.20812e-101
-5.9559e-90
-3.05315e-92
-2.2614e-84
0.000126406
-1.92723e-06
0.000128005
-1.59878e-06
0.000129291
-1.28636e-06
0.000130316
-1.02424e-06
0.00013116
-8.44258e-07
0.000131921
-7.60881e-07
0.000132634
-7.12669e-07
0.000133334
-7.00481e-07
0.000134055
-7.20677e-07
-8.35431e-07
0.000293177
-8.09099e-06
0.000298806
-7.22753e-06
0.000303974
-6.45532e-06
0.000308735
-5.78501e-06
0.000313128
-5.23728e-06
0.000317185
-4.81803e-06
0.00032093
-4.45756e-06
0.000324376
-4.14582e-06
0.000327527
-3.87188e-06
-3.69094e-06
0.000654127
-1.73004e-05
0.000662821
-1.59224e-05
0.00067103
-1.4664e-05
0.000678776
-1.35307e-05
0.000686084
-1.25455e-05
0.000692972
-1.17062e-05
0.000699449
-1.09346e-05
0.000705504
-1.02002e-05
0.000711116
-9.48468e-06
-8.82706e-06
0.00159627
-1.32172e-05
0.00159266
-1.23116e-05
0.00158967
-1.16744e-05
0.00158741
-1.12709e-05
0.00158595
-1.10917e-05
0.00158532
-1.10727e-05
0.00158545
-1.10675e-05
0.00158621
-1.09606e-05
0.00158742
-1.06868e-05
-1.02092e-05
0.00152501
-9.50769e-06
0.00152066
-7.96049e-06
0.00151576
-6.77527e-06
0.0015104
-5.90701e-06
0.00150464
-5.3401e-06
0.00149855
-4.9835e-06
0.00149215
-4.65887e-06
0.00148534
-4.15565e-06
0.00147802
-3.36776e-06
-2.18916e-06
0.00154696
-7.61892e-06
0.00154431
-5.31481e-06
0.00154076
-3.2217e-06
0.00153617
-1.3195e-06
0.00153039
4.42818e-07
0.00152322
2.18327e-06
0.00151444
4.12288e-06
0.0015038
6.47695e-06
0.00149104
9.39962e-06
1.30448e-05
0.00153139
-2.98847e-06
0.00152537
7.04642e-07
0.00151778
4.37639e-06
0.00150832
8.13476e-06
0.00149681
1.19552e-05
0.00148303
1.5961e-05
0.00146677
2.03882e-05
0.00144775
2.54916e-05
0.00142581
3.1338e-05
3.80135e-05
0.00144686
1.15893e-05
0.00143029
1.72761e-05
0.00141182
2.28442e-05
0.00139127
2.86901e-05
0.0013688
3.44231e-05
0.00134434
4.04232e-05
0.00131789
4.68407e-05
0.0012895
5.38763e-05
0.00125923
6.16113e-05
7.01014e-05
0.00122132
3.71357e-05
0.00119537
4.32287e-05
0.00116886
4.93464e-05
0.00114186
5.56924e-05
0.00111403
6.22516e-05
0.00108529
6.91626e-05
0.00105559
7.65466e-05
0.00102493
8.45385e-05
0.000993385
9.31519e-05
0.00010239
0.000878082
0.000856311
0.000833394
0.000809198
0.000783645
0.000756802
0.000728851
0.000700064
0.000670726
)
;

boundaryField
{
    walls
    {
        type            calculated;
        value           nonuniform List<scalar> 
20
(
1.96116e-152
1.15928e-136
1.7805e-122
1.00291e-109
2.76232e-98
4.7545e-88
6.49132e-79
8.51579e-71
1.31724e-63
2.89693e-57
5.80695e-05
6.49989e-05
7.22636e-05
7.98891e-05
8.78042e-05
9.60057e-05
0.000104497
0.000113325
0.00012249
0.000132004
)
;
    }
    topInlet
    {
        type            calculated;
        value           nonuniform 0();
    }
    bottomInlet
    {
        type            calculated;
        value           nonuniform 0();
    }
    outlet
    {
        type            calculated;
        value           nonuniform 0();
    }
    frontBack
    {
        type            empty;
        value           nonuniform 0();
    }
    procBoundary2to1
    {
        type            processor;
        value           nonuniform List<scalar> 
20
(
-1.04243e-168
-3.6573e-215
-4.75147e-240
-5.09798e-241
-5.99313e-242
-8.63874e-243
3.20446e-236
2.9684e-209
1.29938e-199
-9.26246e-193
-0.000124475
-0.000287013
-0.000644917
-0.00160035
-0.00152872
-0.00154884
-0.00153602
-0.00146144
-0.00124686
-0.000899016
)
;
    }
    procBoundary2to3
    {
        type            processor;
        value           nonuniform List<scalar> 
20
(
1.44576e-56
3.82181e-71
1.68316e-82
3.67455e-89
1.29408e-91
6.56262e-91
-9.54382e-89
-6.7586e-85
-8.32776e-83
-6.6462e-82
0.00013489
0.000330382
0.000716253
0.0015888
0.00147
0.0014758
0.00140085
0.00122714
0.000961096
0.000641112
)
;
    }
}


// ************************************************************************* //
