/*--------------------------------*- C++ -*----------------------------------*\
| =========                 |                                                 |
| \\      /  F ield         | OpenFOAM: The Open Source CFD Toolbox           |
|  \\    /   O peration     | Version:  4.x                                   |
|   \\  /    A nd           | Web:      www.OpenFOAM.org                      |
|    \\/     M anipulation  |                                                 |
\*---------------------------------------------------------------------------*/
FoamFile
{
    version     2.0;
    format      ascii;
    class       volScalarField;
    location    "0.4";
    object      alpha.upper;
}
// * * * * * * * * * * * * * * * * * * * * * * * * * * * * * * * * * * * * * //

dimensions      [0 0 0 0 0 0 0];

internalField   nonuniform List<scalar> 
200
(
1.54148e-321
1.45255e-321
1.36362e-321
1.26481e-321
1.17588e-321
2.17389e-321
1.76681e-306
1.37527e-273
1.5821e-244
1.24432e-218
1.40315e-321
1.3241e-321
1.24505e-321
1.16599e-321
1.08694e-321
1.00789e-321
9.38725e-322
1.73911e-321
5.36086e-315
9.43184e-282
1.36362e-321
1.28457e-321
1.20552e-321
1.12647e-321
1.04742e-321
9.7825e-322
9.09081e-322
8.39912e-322
8.19016e-317
4.84268e-315
1.36362e-321
1.28457e-321
1.20552e-321
1.12647e-321
1.04742e-321
9.68369e-322
8.99199e-322
8.3003e-322
4.29581e-318
4.93026e-316
1.36362e-321
1.28457e-321
1.20552e-321
1.12647e-321
1.04742e-321
9.68369e-322
8.99199e-322
8.3003e-322
2.55768e-319
5.72013e-317
1.36362e-321
1.28457e-321
1.20552e-321
1.12647e-321
1.04742e-321
9.68369e-322
8.99199e-322
8.3003e-322
1.61263e-320
8.27822e-318
1.24505e-321
1.16599e-321
1.08694e-321
1.02766e-321
9.48606e-322
8.79437e-322
8.10268e-322
7.5098e-322
1.38338e-321
-3.84615e-311
3.00392e-321
2.78653e-321
2.57902e-321
2.3814e-321
2.19365e-321
2.01579e-321
3.69561e-321
-3.37941e-321
-4.04263e-300
-8.82959e-275
7.1936e-321
6.52167e-321
5.89914e-321
5.35567e-321
9.74297e-321
8.8833e-321
-8.10268e-321
-7.45299e-307
-6.58722e-284
-5.42446e-262
8.25799e-229
1.40162e-229
2.71479e-230
5.61745e-231
1.16499e-231
2.35399e-232
4.54115e-233
8.22154e-234
1.40662e-234
2.33855e-235
0.995259
0.990024
0.984478
0.979105
0.973733
0.968271
0.96264
0.956711
0.950377
0.94379
1
1
1
1
1
1
1
1
1
1
1
1
1
1
1
1
1
1
1
1
1
1
1
1
1
1
1
1
1
1
1
1
1
1
1
1
1
1
1
1
1
1
1
1
1
1
1
1
1
1
1
1
1
1
1
1
1
1
1
1
1
1
1
1
1
1
1
1
1
1
1
1
1
1
1
1
1
1
1
1
1
1
1
1
1
1
1
1
1
1
)
;

boundaryField
{
    walls
    {
        type            zeroGradient;
    }
    topInlet
    {
        type            fixedValue;
        value           nonuniform 0();
    }
    bottomInlet
    {
        type            fixedValue;
        value           nonuniform 0();
    }
    outlet
    {
        type            inletOutlet;
        inletValue      nonuniform 0();
        value           nonuniform 0();
    }
    frontBack
    {
        type            empty;
    }
    procBoundary1to0
    {
        type            processor;
        value           nonuniform List<scalar> 
20
(
1.19564e-321
1.12647e-321
1.10671e-321
1.09683e-321
1.09683e-321
1.09683e-321
9.88131e-322
2.33199e-321
1.12054e-320
1.26721e-219
1
1
1
1
1
1
1
1
1
1
)
;
    }
    procBoundary1to2
    {
        type            processor;
        value           nonuniform List<scalar> 
20
(
2.38582e-195
4.92671e-252
2.23573e-286
1.46774e-287
1.47513e-288
2.14674e-289
-3.25199e-281
-1.91321e-251
-3.01752e-241
7.89296e-245
0.937227
1
1
1
1
1
1
1
1
1
)
;
    }
}


// ************************************************************************* //
