/*--------------------------------*- C++ -*----------------------------------*\
| =========                 |                                                 |
| \\      /  F ield         | OpenFOAM: The Open Source CFD Toolbox           |
|  \\    /   O peration     | Version:  4.x                                   |
|   \\  /    A nd           | Web:      www.OpenFOAM.org                      |
|    \\/     M anipulation  |                                                 |
\*---------------------------------------------------------------------------*/
FoamFile
{
    version     2.0;
    format      ascii;
    class       surfaceScalarField;
    location    "0.2";
    object      alphaPhi;
}
// * * * * * * * * * * * * * * * * * * * * * * * * * * * * * * * * * * * * * //

dimensions      [0 3 -1 0 0 0 0];

internalField   nonuniform List<scalar> 
1530
(
0
0
0
0
0
0
0
0
0
0
0
0
0
0
5.46005e-294
0
7.52607e-282
-7.41098e-323
-2.23414e-313
5.33371e-272
0
0
0
0
0
0
0
0
0
0
0
0
0
0
0
0
1.22676e-320
3.45846e-323
9.69332e-315
2.32138e-311
0
0
0
0
0
0
0
0
0
0
0
0
0
0
0
0
8.59674e-322
4.94066e-324
2.68664e-316
2.03127e-313
0
0
0
0
0
0
0
0
0
0
0
0
0
0
0
0
6.91692e-323
0
1.32761e-317
4.86422e-315
0
0
0
0
0
0
0
0
0
0
0
0
0
0
0
0
4.94066e-324
0
1.00783e-318
2.44562e-316
0
0
0
0
0
0
0
0
0
0
0
0
0
0
0
0
0
0
1.54148e-319
1.95687e-317
0
0
0
0
0
0
0
0
0
0
0
0
0
0
0
0
0
0
1.93204e-319
9.09252e-318
0
0
0
0
0
0
0
0
0
0
0
0
0
0
1.17313e-289
9.3439e-291
5.25731e-275
3.5284e-276
5.6088e-269
6.50457e-268
0
0
0
0
0
0
0
0
1.08347e-307
5.19096e-308
1.76598e-284
8.24173e-285
2.83543e-267
1.29153e-267
1.23236e-225
5.3444e-226
2.38562e-207
8.3643e-208
2.72024e-203
1.58082e-202
0
0
0
0
1.67618e-302
1.8739e-276
1.51414e-257
1.15827e-213
1.86692e-186
1.73363e-148
7.04476e-05
-0.000158748
4.49239e-05
-0.000134881
3.40074e-05
-0.000103928
2.82084e-05
-8.50681e-05
2.46694e-05
-7.38596e-05
2.21414e-05
-6.6404e-05
2.00317e-05
-6.01041e-05
1.80295e-05
-5.3074e-05
1.60998e-05
-4.0766e-05
-2.3385e-05
4.19753e-05
0.000279033
-6.75482e-05
0.000223887
-7.97348e-05
0.000189918
-6.9959e-05
0.00016771
-6.28598e-05
0.000152412
-5.85611e-05
0.000140627
-5.46193e-05
0.000130474
-4.99517e-05
0.000121285
-4.38846e-05
0.000116087
-3.55678e-05
-4.51497e-05
0.000137852
0.000778393
-4.68838e-05
0.00074094
-4.22821e-05
0.000706506
-3.55252e-05
0.00067149
-2.78432e-05
0.000637392
-2.44637e-05
0.000605346
-2.25731e-05
0.000575652
-2.02575e-05
0.000549463
-1.76958e-05
0.000531816
-1.79207e-05
-3.50855e-05
0.000521752
0.00173007
-5.05502e-05
0.00172577
-3.79838e-05
0.00172187
-3.16277e-05
0.00171837
-2.43426e-05
0.00171258
-1.86743e-05
0.00170445
-1.44428e-05
0.00169488
-1.06808e-05
0.00168476
-7.57511e-06
0.00167363
-6.79811e-06
-1.1448e-05
0.00165
0.00154247
-5.25271e-05
0.00154413
-3.9639e-05
0.00154475
-3.22541e-05
0.00154622
-2.5807e-05
0.00154755
-2.0011e-05
0.00154831
-1.5202e-05
0.00154877
-1.11367e-05
0.00154904
-7.8459e-06
0.00154808
-5.8406e-06
-5.5287e-06
0.00154216
0.001545
-5.3693e-05
0.00154658
-4.12139e-05
0.00154749
-3.31661e-05
0.00154877
-2.70889e-05
0.00155023
-2.1467e-05
0.00155145
-1.64274e-05
0.00155242
-1.20998e-05
0.00155302
-8.45044e-06
0.00155273
-5.5544e-06
-3.41631e-06
0.00155062
0.00154775
-5.46707e-05
0.00154885
-4.2307e-05
0.00154953
-3.3845e-05
0.00155043
-2.79925e-05
0.00155155
-2.25903e-05
0.0015527
-1.75725e-05
0.00155378
-1.3183e-05
0.00155456
-9.22799e-06
0.00155408
-5.07732e-06
-1.16507e-06
0.00155183
0.00155061
-5.59035e-05
0.00155057
-4.22663e-05
0.00154995
-3.32239e-05
0.00154903
-2.70751e-05
0.00154763
-2.11842e-05
0.00154596
-1.59108e-05
0.00154422
-1.14355e-05
0.00154245
-7.46249e-06
0.00154075
-3.37309e-06
3.47236e-07
0.00153923
0.00154854
-5.32483e-05
0.00154115
-3.48761e-05
0.0015335
-2.55715e-05
0.00152472
-1.82975e-05
0.00151424
-1.0706e-05
0.00150317
-4.84394e-06
0.00149106
6.81856e-07
0.0014779
5.68986e-06
0.00146428
1.02507e-05
1.49908e-05
0.00144964
0.00147754
0.00142081
0.00137308
0.00133048
0.00129292
0.00125935
0.00122984
0.00120424
0.00118257
0.00116695
2.5277e-271
5.05871e-273
1.32827e-270
2.48345e-272
4.35552e-258
7.13071e-260
1.43147e-230
1.68058e-232
7.36484e-206
4.88493e-208
1.51382e-179
5.51341e-183
3.96848e-160
-7.03977e-184
1.97035e-143
-4.10753e-182
9.22401e-129
-5.08018e-164
9.71085e-116
-2.63054e-147
4.50272e-104
-2.03313e-132
1.32832e-93
-5.36369e-119
3.31387e-84
-6.4601e-107
8.9047e-76
-4.59539e-96
3.15046e-68
-2.46333e-86
1.74071e-61
-1.2545e-77
1.76757e-55
-7.56594e-70
3.76551e-50
-6.45924e-63
1.93712e-45
-9.4223e-57
2.73594e-41
-2.74719e-51
1.25931e-37
-1.96585e-46
1.98655e-34
-3.6995e-42
8.82753e-32
-1.1237e-38
4.12738e-30
-9.3492e-37
9.93781e-29
-3.87358e-35
1.56908e-27
-1.04253e-33
7.61637e-26
-7.45688e-26
7.60736e-25
-7.07058e-25
3.96344e-24
-3.16456e-24
-3.32025e-24
1.12974e-272
2.99463e-274
9.68843e-272
2.54703e-273
3.03371e-259
7.54305e-261
6.87572e-232
1.52417e-233
1.93511e-207
3.64321e-209
2.12801e-182
3.23268e-184
1.33948e-181
1.51761e-183
3.69488e-180
2.66854e-182
2.95432e-162
6.69428e-165
1.13588e-145
-9.57679e-165
7.08601e-131
-3.27066e-149
1.5656e-117
-1.24559e-134
1.60931e-105
-1.88272e-121
9.88019e-95
-1.52031e-109
4.6022e-85
-1.02136e-98
2.04434e-76
-6.58781e-89
1.07939e-68
-4.83765e-80
8.07384e-62
-4.60099e-72
1.03299e-55
-6.65466e-65
2.64245e-50
-1.67446e-58
1.66116e-45
-8.92235e-53
2.75303e-41
-1.05234e-47
7.60923e-38
-1.32437e-43
6.33272e-36
-1.56764e-41
2.59326e-34
-9.25817e-40
6.90721e-33
-3.59691e-38
4.89959e-25
-5.64527e-25
4.64824e-24
-4.86534e-24
1.99483e-23
-1.84646e-23
-1.81851e-23
6.15465e-274
1.72759e-275
7.5026e-273
2.09193e-274
2.51567e-260
6.72862e-262
4.83744e-233
1.18632e-234
1.10752e-208
2.40108e-210
9.45597e-184
1.7634e-185
9.61543e-183
1.4955e-184
2.35979e-181
2.92492e-183
5.22306e-164
4.77433e-166
4.09337e-162
2.44415e-164
5.13429e-147
1.84438e-149
1.20499e-132
1.45086e-135
1.31338e-119
-2.18579e-128
8.17364e-108
-5.39983e-116
4.40158e-97
-7.76447e-105
2.33467e-87
-1.09953e-94
1.43251e-78
-1.61839e-85
1.14711e-70
-3.41028e-77
1.40552e-63
-1.18831e-69
3.00461e-57
-7.66865e-63
1.36635e-51
-1.08756e-56
1.38521e-46
-3.42986e-51
1.55495e-42
-9.51406e-47
1.80569e-40
-1.27727e-44
1.03444e-38
-8.80714e-43
3.91025e-37
-5.31226e-41
6.00988e-24
-6.57441e-24
5.08012e-23
-4.96566e-23
1.93717e-22
-1.6138e-22
-1.57884e-22
3.50543e-275
1.00805e-276
5.68038e-274
1.63201e-275
2.15966e-261
5.86782e-263
3.60814e-234
8.87766e-236
6.95829e-210
1.5073e-211
4.88994e-185
9.12969e-187
7.06415e-184
1.11227e-185
1.94681e-182
2.52381e-184
2.86149e-165
2.9585e-167
4.54928e-163
3.66524e-165
3.56602e-148
2.26742e-150
2.58539e-134
1.29063e-136
1.91656e-125
7.21681e-128
1.51809e-113
3.92015e-116
1.2577e-102
1.75639e-105
1.20495e-92
9.82975e-97
1.30817e-83
-4.86335e-88
2.09944e-75
-1.99959e-79
5.71239e-68
-9.81154e-72
2.92141e-61
-8.39478e-65
3.33236e-55
-1.54952e-58
8.59057e-50
-7.26746e-53
2.03707e-45
-2.65346e-48
2.58577e-43
-3.49579e-46
1.67501e-41
-2.38871e-44
9.54917e-40
-5.08093e-42
1.12922e-22
-1.19497e-22
8.19731e-22
-7.56465e-22
2.72045e-21
-2.0621e-21
-1.99409e-21
2.04288e-276
6.10081e-278
4.26576e-275
1.2591e-276
1.88193e-262
5.11369e-264
2.69663e-235
6.4878e-237
4.35534e-211
9.13825e-213
2.51953e-186
4.54475e-188
4.80523e-185
7.34745e-187
1.57181e-183
2.01681e-185
1.70988e-166
1.82166e-168
5.626e-164
4.95853e-166
3.62123e-149
2.71723e-151
1.85817e-135
1.22547e-137
4.43175e-126
2.62671e-128
2.12776e-114
1.15343e-116
9.9331e-104
4.98438e-106
3.0937e-94
1.43355e-96
3.58651e-85
1.53171e-87
6.36941e-77
2.39328e-79
1.83949e-69
5.56628e-72
1.02139e-62
1.94996e-65
1.31674e-56
4.54576e-60
4.52014e-51
-1.4467e-53
1.28845e-46
-6.90644e-49
1.49108e-44
-9.52625e-47
9.0154e-43
-6.50009e-45
1.71904e-40
-4.16882e-42
3.69913e-21
-3.81862e-21
2.16858e-20
-1.87432e-20
6.05644e-20
-4.09407e-20
-3.91357e-20
1.23895e-277
3.99374e-279
3.23131e-276
1.01287e-277
1.66588e-263
4.61826e-265
2.00386e-236
4.824e-238
2.68404e-212
5.63095e-214
1.27415e-187
2.31776e-189
3.10844e-186
4.89834e-188
1.27031e-184
1.74565e-186
1.10445e-167
1.33474e-169
8.81624e-165
9.50396e-167
5.1967e-150
5.15559e-152
2.04503e-136
1.92574e-138
-7.90571e-125
-7.20827e-127
-6.31028e-113
-5.6357e-115
-2.32692e-102
-2.04804e-104
-6.56457e-93
-5.69376e-95
-1.09797e-84
-9.38223e-87
1.75542e-76
1.46037e-78
6.67515e-69
5.31217e-71
3.37742e-62
2.47707e-64
3.51207e-56
2.26447e-58
8.14937e-51
4.26217e-53
1.56621e-46
5.47636e-49
1.39441e-44
2.01763e-47
7.02056e-43
-2.50546e-45
3.53928e-40
-7.78026e-42
2.70418e-19
-2.74237e-19
1.146e-18
-9.02142e-19
2.54654e-18
-1.48146e-18
-1.25436e-18
8.52556e-279
3.14448e-280
2.76623e-277
9.52949e-279
1.73957e-264
4.99486e-266
1.71337e-237
4.24314e-239
1.8894e-213
4.09795e-215
7.37332e-189
1.40847e-190
2.46119e-187
4.19552e-189
1.57381e-185
2.42616e-187
1.24287e-168
1.74882e-170
-1.66282e-158
-2.15106e-160
-1.46965e-143
-1.76539e-145
-8.02195e-130
-9.03402e-132
-1.91933e-117
-2.036e-119
-2.59299e-106
-2.59036e-108
-1.88069e-96
-1.76338e-98
-1.32731e-87
-1.16117e-89
-1.20706e-79
-9.81883e-82
-1.2306e-72
-9.23881e-75
-1.90288e-66
-1.3046e-68
-4.21394e-61
-2.57995e-63
1.42221e-55
7.55408e-58
1.28143e-49
5.64175e-52
2.31294e-45
7.64339e-48
1.74216e-43
3.54879e-46
6.84352e-42
6.76658e-45
3.80047e-39
8.78157e-44
7.73976e-17
-7.76719e-17
1.82963e-16
-1.46729e-16
2.98045e-16
-2.56396e-16
-2.70834e-16
2.4313e-267
2.50467e-268
8.80183e-267
6.67064e-268
6.91167e-260
3.892e-261
5.97601e-238
2.66607e-239
3.62147e-214
1.3067e-215
9.2711e-190
2.77057e-191
-1.77997e-182
-4.51843e-184
-2.72748e-168
-6.00427e-170
-2.14318e-153
-4.15503e-155
-1.54254e-140
-2.66278e-142
-8.0777e-129
-1.25676e-130
-7.2555e-118
-1.03259e-119
-9.41658e-108
-1.23901e-109
-1.86157e-98
-2.27046e-100
-4.77407e-90
-5.37634e-92
-2.39572e-82
-2.46945e-84
-2.87598e-75
-2.7032e-77
-6.15734e-69
-5.23462e-71
-3.18693e-63
-2.42067e-65
-4.8861e-58
-3.21277e-60
-2.17304e-53
-1.18352e-55
-1.81029e-49
-7.6158e-52
3.3867e-46
9.55525e-49
3.80507e-46
6.45408e-46
8.10685e-46
6.71478e-45
1.87099e-13
-1.87099e-13
4.77267e-13
-4.45295e-13
8.04989e-13
-7.56729e-13
9.77261e-13
-9.84614e-13
-9.64344e-13
3.95194e-202
6.2292e-203
9.05659e-202
7.35345e-203
2.24865e-201
1.24243e-202
6.16511e-201
2.54418e-202
2.29524e-200
7.37256e-202
-3.04678e-183
-7.95115e-185
-2.60815e-168
-5.74203e-170
-1.52426e-156
-2.91736e-158
-8.81699e-145
-1.49955e-146
-1.0831e-133
-1.65513e-135
-2.70112e-123
-3.75246e-125
-1.83108e-113
-2.36232e-115
-3.39772e-104
-4.1399e-106
-1.61972e-95
-1.86605e-97
-1.49479e-87
-1.60864e-89
-3.66351e-80
-3.60363e-82
-2.82641e-73
-2.51928e-75
-4.22128e-67
-3.35795e-69
-1.94089e-61
-1.34803e-63
-3.78994e-56
-2.15164e-58
-2.05338e-51
-8.56747e-54
-7.79078e-47
-1.92963e-49
-1.34287e-42
-9.30895e-46
1.53141e-10
-1.53141e-10
6.39531e-10
-4.89548e-10
1.43889e-09
-8.0964e-10
2.21254e-09
-7.91737e-10
3.06097e-09
-8.67878e-10
3.62581e-09
-5.84889e-10
1.4231e-09
4.45905e-149
1.49782e-148
1.09629e-149
3.36275e-149
2.72766e-150
8.23526e-150
6.68132e-151
2.05952e-150
1.58349e-151
5.09783e-151
3.58945e-152
1.22455e-151
7.71812e-153
2.81764e-152
1.56424e-153
6.15386e-153
-3.09337e-142
-2.42624e-144
-1.33908e-131
-1.06598e-133
-1.47323e-121
-1.17171e-123
-5.17948e-112
-4.24311e-114
-5.71113e-103
-4.92109e-105
-1.85732e-94
-1.64924e-96
-1.30047e-86
-1.13462e-88
-2.69165e-79
-2.1646e-81
-1.89818e-72
-1.37309e-74
-2.59743e-66
-1.62649e-68
-1.15735e-60
-5.9329e-63
-2.37283e-55
-8.07365e-58
-1.32482e-50
-1.52711e-53
1.29291e-07
-1.29291e-07
4.90483e-07
-3.61192e-07
1.0435e-06
-5.53173e-07
1.79391e-06
-7.50891e-07
2.73267e-06
-9.39559e-07
3.70434e-06
-9.72445e-07
4.70949e-06
-1.006e-06
5.76109e-06
-1.05217e-06
-9.62889e-07
6.75238e-05
-2.55486e-05
8.20948e-05
-1.4571e-05
9.25901e-05
-1.04953e-05
0.000100659
-8.06898e-06
0.000106959
-6.29963e-06
0.000111989
-5.03002e-06
0.000116082
-4.09298e-06
0.000119436
-3.35388e-06
0.000122187
-2.75183e-06
0.000124475
-2.28742e-06
0.000126406
-1.92723e-06
0.000128005
-1.59878e-06
0.000129291
-1.28636e-06
0.000130316
-1.02424e-06
0.00013116
-8.44259e-07
0.000131921
-7.60881e-07
0.000132634
-7.12668e-07
0.000133334
-7.00481e-07
0.000134055
-7.20677e-07
0.00013489
-8.35431e-07
0.000135911
-1.03512e-06
0.000137071
-1.28939e-06
0.000138217
-1.50722e-06
0.000139265
-1.60084e-06
0.000140265
-1.7505e-06
0.00014122
-1.89529e-06
0.000142026
-1.77838e-06
0.000142725
-1.70486e-06
0.00014336
-1.68696e-06
-1.51577e-06
0.000166566
-5.42633e-05
0.000192535
-4.05394e-05
0.000212581
-3.0542e-05
0.000228977
-2.44641e-05
0.000242588
-1.9911e-05
0.000254069
-1.65113e-05
0.000263944
-1.3968e-05
0.000272572
-1.19815e-05
0.000280198
-1.03779e-05
0.000287013
-9.10241e-06
0.000293177
-8.09099e-06
0.000298806
-7.22753e-06
0.000303974
-6.45532e-06
0.000308735
-5.78502e-06
0.000313128
-5.23728e-06
0.000317185
-4.81803e-06
0.00032093
-4.45756e-06
0.000324376
-4.14582e-06
0.000327527
-3.87188e-06
0.000330382
-3.69094e-06
0.000332938
-3.59038e-06
0.000335171
-3.5232e-06
0.000337002
-3.33776e-06
0.000338327
-2.92567e-06
0.000339257
-2.68114e-06
0.000339833
-2.47077e-06
0.000340075
-2.02068e-06
0.000340068
-1.6978e-06
0.000339919
-1.53824e-06
-1.35186e-06
0.000527869
-6.03802e-05
0.000543203
-5.58738e-05
0.000558776
-4.61152e-05
0.000573705
-3.93929e-05
0.000587937
-3.41429e-05
0.000601144
-2.97182e-05
0.000613337
-2.61616e-05
0.000624633
-2.32772e-05
0.000635125
-2.08706e-05
0.000644917
-1.88941e-05
0.000654127
-1.73004e-05
0.000662821
-1.59224e-05
0.00067103
-1.4664e-05
0.000678776
-1.35307e-05
0.000686084
-1.25455e-05
0.000692972
-1.17062e-05
0.000699449
-1.09346e-05
0.000705504
-1.02002e-05
0.000711116
-9.48468e-06
0.000716253
-8.82706e-06
0.000720875
-8.21279e-06
0.000724913
-7.56132e-06
0.000728175
-6.59952e-06
0.000730461
-5.21201e-06
0.000731969
-4.18864e-06
0.000732748
-3.25055e-06
0.000732842
-2.11416e-06
0.000732353
-1.20863e-06
0.000731746
-9.31962e-07
-6.78446e-07
0.00163871
-4.90995e-05
0.00163034
-4.75003e-05
0.00162595
-4.17208e-05
0.00162249
-3.59385e-05
0.00161938
-3.10279e-05
0.00161625
-2.65924e-05
0.00161278
-2.26878e-05
0.00160889
-1.93863e-05
0.00160467
-1.66531e-05
0.00160035
-1.4577e-05
0.00159627
-1.32172e-05
0.00159266
-1.23116e-05
0.00158967
-1.16744e-05
0.00158741
-1.12709e-05
0.00158595
-1.10917e-05
0.00158532
-1.10727e-05
0.00158545
-1.10675e-05
0.00158621
-1.09606e-05
0.00158742
-1.06868e-05
0.0015888
-1.02092e-05
0.00159009
-9.49973e-06
0.00159094
-8.41497e-06
0.00159092
-6.58301e-06
0.00158986
-4.15017e-06
0.00158774
-2.06337e-06
0.00158443
5.09221e-08
0.00157991
2.41049e-06
0.00157413
4.57313e-06
0.00156865
4.54717e-06
3.28551e-06
0.00153869
-4.56288e-05
0.00153611
-4.49169e-05
0.0015355
-4.11091e-05
0.00153568
-3.61233e-05
0.00153587
-3.12148e-05
0.00153579
-2.65176e-05
0.0015352
-2.20961e-05
0.00153388
-1.80647e-05
0.00153172
-1.44878e-05
0.00152872
-1.15802e-05
0.00152501
-9.50769e-06
0.00152066
-7.96049e-06
0.00151576
-6.77527e-06
0.0015104
-5.90701e-06
0.00150464
-5.3401e-06
0.00149855
-4.9835e-06
0.00149215
-4.65887e-06
0.00148534
-4.15565e-06
0.00147802
-3.36776e-06
0.00147
-2.18916e-06
0.00146103
-5.30377e-07
0.00145081
1.80394e-06
0.00143934
4.89327e-06
0.00142742
7.77162e-06
0.00141475
1.06058e-05
0.00140124
1.35547e-05
0.00138697
1.66821e-05
0.00137194
1.96021e-05
0.00135753
1.89624e-05
1.15612e-05
0.00154889
-4.38923e-05
0.00154766
-4.36906e-05
0.00154762
-4.10657e-05
0.00154838
-3.68907e-05
0.00154934
-3.21725e-05
0.00155021
-2.7388e-05
0.00155078
-2.26696e-05
0.00155081
-1.80904e-05
0.00155014
-1.38195e-05
0.00154884
-1.02819e-05
0.00154696
-7.61892e-06
0.00154431
-5.31481e-06
0.00154076
-3.2217e-06
0.00153617
-1.3195e-06
0.00153039
4.42817e-07
0.00152322
2.18327e-06
0.00151444
4.12288e-06
0.0015038
6.47695e-06
0.00149104
9.39962e-06
0.0014758
1.30448e-05
0.00145784
1.74356e-05
0.00143696
2.2679e-05
0.00141381
2.80413e-05
0.00139054
3.10423e-05
0.00136695
3.42039e-05
0.00134321
3.72912e-05
0.00131959
4.03011e-05
0.0012962
4.29943e-05
0.00127401
4.11468e-05
2.33535e-05
0.00155032
-4.23827e-05
0.00154844
-4.18093e-05
0.00154713
-3.97519e-05
0.00154626
-3.603e-05
0.00154554
-3.14523e-05
0.00154477
-2.66128e-05
0.00154376
-2.16583e-05
0.00154217
-1.65037e-05
0.00153963
-1.12811e-05
0.00153602
-6.67419e-06
0.00153139
-2.98847e-06
0.00152537
7.04643e-07
0.00151778
4.37639e-06
0.00150832
8.13476e-06
0.00149681
1.19552e-05
0.00148303
1.5961e-05
0.00146677
2.03882e-05
0.00144775
2.54916e-05
0.00142581
3.1338e-05
0.00140085
3.80135e-05
0.00137277
4.55107e-05
0.00134175
5.37007e-05
0.00130904
6.07459e-05
0.00127778
6.23047e-05
0.00124759
6.44008e-05
0.00121863
6.62512e-05
0.00119105
6.78722e-05
0.00116487
6.91805e-05
0.00113981
6.62078e-05
3.70837e-05
0.00153416
-3.73133e-05
0.00152878
-3.64233e-05
0.00152281
-3.37857e-05
0.00151621
-2.94254e-05
0.00150919
-2.44386e-05
0.00150163
-1.90445e-05
0.00149349
-1.35248e-05
0.00148441
-7.41975e-06
0.00147385
-7.19442e-07
0.00146144
5.73162e-06
0.00144686
1.15893e-05
0.00143029
1.72761e-05
0.00141182
2.28442e-05
0.00139127
2.86901e-05
0.0013688
3.44231e-05
0.00134434
4.04232e-05
0.00131789
4.68407e-05
0.0012895
5.38763e-05
0.00125923
6.16113e-05
0.00122714
7.01014e-05
0.00119335
7.9297e-05
0.00115808
8.89752e-05
0.00112258
9.62443e-05
0.00108999
9.48909e-05
0.00105964
9.47578e-05
0.00103144
9.44513e-05
0.0010053
9.40073e-05
0.000980944
9.3539e-05
0.000956422
9.07293e-05
5.00868e-05
0.00143434
-2.20143e-05
0.00141777
-1.98581e-05
0.00140056
-1.65744e-05
0.001382
-1.08616e-05
0.00136309
-5.53418e-06
0.00134286
1.18588e-06
0.00132066
8.67856e-06
0.00129683
1.64102e-05
0.00127213
2.39767e-05
0.00124686
3.09999e-05
0.00122132
3.71357e-05
0.00119537
4.32287e-05
0.00116886
4.93464e-05
0.00114186
5.56924e-05
0.00111403
6.22516e-05
0.00108529
6.91626e-05
0.00105559
7.65466e-05
0.00102493
8.45385e-05
0.000993385
9.31519e-05
0.000961096
0.00010239
0.000928199
0.000112194
0.000894749
0.000122425
0.000861754
0.00012924
0.00083218
0.000124465
0.00080536
0.000121578
0.000781034
0.000118777
0.000758778
0.000116263
0.000739195
0.000113122
0.000715673
0.000114252
6.60387e-05
0.00113566
0.00110497
0.00107379
0.00104379
0.00101466
0.000987552
0.000962942
0.000940493
0.000919494
0.000899016
0.000878082
0.000856311
0.000833394
0.000809198
0.000783645
0.000756802
0.000728851
0.000700064
0.000670726
0.000641112
0.00061147
0.000581749
0.000552528
0.000526829
0.000504299
0.000484369
0.000466401
0.000451492
0.000429737
)
;

boundaryField
{
    walls
    {
        type            calculated;
        value           nonuniform List<scalar> 
100
(
0
0
0
0
5.1695e-302
5.73237e-276
4.62156e-257
3.48427e-213
4.91527e-186
-7.22683e-150
0
0
0
0
0
0
0
1.36819e-295
1.96047e-283
1.34614e-273
1.89522e-273
1.1951e-272
5.50795e-260
2.45756e-232
1.62746e-207
4.14774e-181
1.31511e-161
7.80768e-145
4.33414e-130
5.35404e-117
2.8748e-105
9.74238e-95
2.77872e-85
8.50599e-77
3.41849e-69
2.14149e-62
2.46018e-56
5.92305e-51
3.43988e-46
5.48212e-42
2.84541e-38
5.06664e-35
2.47177e-32
1.15005e-30
2.77938e-29
4.407e-28
2.15245e-26
2.12021e-25
1.23253e-24
3.24333e-24
9.28204e-06
1.08262e-05
1.46063e-05
1.91418e-05
2.35902e-05
2.82985e-05
3.32885e-05
3.88596e-05
4.49759e-05
5.14782e-05
5.80695e-05
6.49989e-05
7.22636e-05
7.98891e-05
8.78042e-05
9.60057e-05
0.000104497
0.000113325
0.00012249
0.000132004
0.000141836
0.000152146
0.000158461
0.000150164
0.000144108
0.000138707
0.000134231
0.000128032
0.000136007
8.03443e-05
0.000262546
0.000160404
0.000114844
9.08671e-05
7.73986e-05
6.8932e-05
6.22138e-05
5.50762e-05
4.26957e-05
-2.49046e-06
2.22545e-05
2.18579e-05
2.21561e-05
2.42984e-05
2.68575e-05
2.87223e-05
3.01924e-05
3.12943e-05
3.19253e-05
3.0602e-05
)
;
    }
    topInlet
    {
        type            calculated;
        value           nonuniform List<scalar> 10(-0.000174246 -0.000370233 -0.000799057 -0.0017264 -0.00154049 -0.00154384 -0.00154678 -0.00154938 -0.00155119 -0.00155304);
    }
    bottomInlet
    {
        type            calculated;
        value           uniform 0;
    }
    outlet
    {
        type            calculated;
        value           nonuniform List<scalar> 
20
(
1.68785e-23
3.48136e-23
3.33416e-22
4.55666e-21
9.77061e-20
3.68858e-18
3.12022e-16
6.8207e-13
2.17708e-09
6.72542e-06
0.000143913
0.000339756
0.000731073
0.00156469
0.00134925
0.00126222
0.00112608
0.000943419
0.000699721
0.000415431
)
;
    }
    frontBack
    {
        type            empty;
        value           nonuniform 0();
    }
}


// ************************************************************************* //
