/*--------------------------------*- C++ -*----------------------------------*\
| =========                 |                                                 |
| \\      /  F ield         | OpenFOAM: The Open Source CFD Toolbox           |
|  \\    /   O peration     | Version:  4.x                                   |
|   \\  /    A nd           | Web:      www.OpenFOAM.org                      |
|    \\/     M anipulation  |                                                 |
\*---------------------------------------------------------------------------*/
FoamFile
{
    version     2.0;
    format      ascii;
    class       volScalarField;
    location    "0.2";
    object      alpha.upper;
}
// * * * * * * * * * * * * * * * * * * * * * * * * * * * * * * * * * * * * * //

dimensions      [0 0 0 0 0 0 0];

internalField   nonuniform List<scalar> 
800
(
0
0
0
0
1.15611e-321
1.16599e-321
1.17588e-321
4.52521e-291
6.35218e-279
4.56163e-269
0
0
0
0
1.10671e-321
1.10671e-321
1.10671e-321
1.11659e-321
8.36864e-318
1.59975e-308
0
0
0
0
1.09683e-321
1.09683e-321
1.09683e-321
1.10671e-321
5.59193e-319
1.31942e-310
0
0
0
0
1.08694e-321
1.08694e-321
1.09683e-321
1.09683e-321
4.60469e-320
3.13418e-312
0
0
0
0
1.08694e-321
1.08694e-321
1.08694e-321
1.09683e-321
3.2806e-321
1.57708e-313
0
0
0
0
1.08694e-321
1.08694e-321
1.08694e-321
1.09683e-321
1.09683e-321
1.26851e-314
0
0
0
0
9.68369e-322
9.7825e-322
9.7825e-322
9.88131e-322
9.88131e-322
5.49795e-315
0
0
0
0
2.19365e-321
2.23318e-321
2.2727e-321
2.11387e-286
9.78465e-272
1.23426e-264
0
0
0
0
7.02569e-304
1.23997e-280
2.14342e-263
1.00108e-221
2.02438e-203
1.13471e-198
0
0
0
0
6.67189e-298
8.30468e-272
7.40849e-253
6.28866e-209
1.13535e-181
4.1106e-144
1
1
1
1
1
1
1
1
1
1
1
1
1
1
1
1
1
1
1
1
1
1
1
1
1
1
1
1
1
1
1
1
1
1
1
1
1
1
1
1
1
1
1
1
1
1
1
1
1
1
1
1
1
1
1
1
1
1
1
1
1
1
1
1
1
1
1
1
1
1
1
1
1
1
1
1
1
1
1
1
1
1
1
1
1
1
1
1
1
1
1
1
1
1
1
1
1
1
1
1
2.22127e-268
1.19957e-267
4.04766e-255
1.36875e-227
7.24445e-203
1.53042e-176
4.11601e-157
2.09323e-140
1.00264e-125
1.07982e-112
5.12657e-101
1.5509e-90
3.97564e-81
1.1002e-72
4.01863e-65
2.2982e-58
2.42172e-52
5.36694e-47
2.87883e-42
4.24836e-38
2.047e-34
3.38768e-31
1.58168e-28
7.74015e-27
1.94293e-25
3.18763e-24
1.60419e-22
1.65285e-21
9.03268e-21
3.97335e-20
7.86832e-270
6.8267e-269
2.16391e-256
4.96958e-229
1.41806e-204
1.58269e-179
1.01276e-178
2.84485e-177
2.31893e-159
9.09792e-143
5.79562e-128
1.30853e-114
1.37578e-102
8.64785e-92
4.12893e-82
1.88255e-73
1.02173e-65
7.86846e-59
1.03815e-52
2.74295e-47
1.78383e-42
3.06339e-38
8.78005e-35
7.5571e-33
3.19355e-31
8.76e-30
6.38894e-22
6.21567e-21
2.75221e-20
4.90945e-20
4.01085e-271
4.90631e-270
1.65147e-257
3.18932e-230
7.33591e-206
6.29502e-181
6.43652e-180
1.58923e-178
3.54281e-161
2.79961e-159
3.54652e-144
8.41958e-130
9.29721e-117
5.87129e-105
3.21377e-94
1.73557e-84
1.08622e-75
8.88834e-68
1.11497e-60
2.44491e-54
1.14271e-48
1.19293e-43
1.3803e-39
1.64934e-37
9.71045e-36
3.76744e-34
5.93574e-21
5.13787e-20
2.00777e-19
3.50161e-19
2.26087e-272
3.66802e-271
1.39574e-258
2.33314e-231
4.50165e-207
3.16524e-182
4.57577e-181
1.26234e-179
1.85837e-162
2.96151e-160
2.3283e-145
1.69455e-131
1.26234e-122
1.00603e-110
8.39781e-100
8.11962e-90
8.91189e-81
1.44881e-72
4.0021e-65
2.08274e-58
2.42355e-52
6.38961e-47
1.55223e-42
2.01743e-40
1.33765e-38
7.80196e-37
9.43348e-20
6.99742e-19
2.37177e-18
4.01957e-18
1.31879e-273
2.75592e-272
1.21584e-259
1.7413e-232
2.81062e-208
1.625e-183
3.09801e-182
1.01332e-180
1.10275e-163
3.63136e-161
2.34019e-146
1.20283e-132
2.87511e-123
1.38437e-111
6.48634e-101
2.0294e-91
2.3659e-82
4.23067e-74
1.23204e-66
6.91027e-60
9.01638e-54
3.13937e-48
9.09281e-44
1.06957e-41
6.57629e-40
1.27562e-37
2.79293e-18
1.66614e-17
4.73203e-17
7.70334e-17
8.04881e-275
2.10261e-273
1.08436e-260
1.30413e-233
1.74649e-209
8.29076e-185
2.02327e-183
8.27485e-182
7.20387e-165
5.76113e-162
3.40374e-147
1.34311e-133
-5.2083e-122
-4.17145e-110
-1.54393e-99
-4.37291e-90
-7.34479e-82
1.17959e-73
4.5075e-66
2.29301e-59
2.39898e-53
5.60556e-48
1.08584e-43
9.74735e-42
4.95101e-40
2.51959e-37
1.94451e-16
8.32879e-16
1.86989e-15
2.72461e-15
5.18956e-276
1.69221e-274
1.06692e-261
1.05299e-234
1.1633e-210
4.54818e-186
1.52133e-184
9.75094e-183
7.72029e-166
-1.03563e-155
-9.17665e-141
-5.02044e-127
-1.20351e-114
-1.62837e-103
-1.18228e-93
-8.3487e-85
-7.59305e-77
-7.73901e-70
-1.19602e-63
-2.64684e-58
8.92763e-53
8.04095e-47
1.45157e-42
1.09416e-40
4.30388e-39
2.39506e-36
2.51737e-14
2.75935e-14
2.69746e-14
2.77237e-14
4.56398e-264
1.60754e-263
1.22838e-256
1.03533e-234
6.12657e-211
1.53489e-186
-2.88972e-179
-4.34974e-165
-3.36269e-150
-2.38436e-137
-1.2314e-125
-1.09185e-114
-1.40007e-104
-2.73683e-95
-6.94546e-87
-3.45146e-79
-4.10581e-72
-8.7165e-66
-4.47665e-60
-6.81528e-55
-3.01198e-50
-2.49546e-46
4.64797e-43
4.65078e-43
5.28775e-43
-1.74401e-12
-4.65192e-12
1.10905e-13
1.53223e-13
1.68075e-13
2.35582e-198
4.67959e-198
1.0536e-197
2.68401e-197
9.43715e-197
-1.1966e-179
-9.86315e-165
-5.58312e-153
-3.14223e-141
-3.76897e-130
-9.20309e-120
-6.12197e-110
-1.11678e-100
-5.24217e-92
-4.77039e-84
-1.1543e-76
-8.80221e-70
-1.30075e-63
-5.92353e-58
-1.14674e-52
-6.16566e-48
-2.32383e-43
-3.98386e-39
-4.84744e-10
-1.83789e-09
-3.92632e-09
-5.87135e-09
5.30774e-10
8.5939e-10
9.31931e-10
2.67875e-153
4.54661e-154
8.80631e-155
1.8222e-155
3.77904e-156
7.63596e-157
1.47307e-157
2.66692e-158
-2.39698e-138
-1.01146e-127
-1.08813e-117
-3.75003e-108
-4.06157e-99
-1.29969e-90
-8.96806e-83
-1.83165e-75
-1.27619e-68
-1.72727e-62
-7.62045e-57
-1.54854e-51
-8.57813e-47
0.000435895
0.00201342
0.00487445
0.0089557
0.0143786
0.0203006
0.026643
0.0326461
0.0426612
0.995259
0.990024
0.984478
0.979105
0.973733
0.968271
0.96264
0.956711
0.950377
0.94379
0.937227
0.930491
0.92336
0.915866
0.908289
0.901193
0.894791
0.889225
0.884685
0.881176
0.880045
0.880926
0.882831
0.885584
0.889054
0.893301
0.897647
0.902076
0.906099
0.912499
1
1
1
1
1
1
1
1
1
1
1
1
1
1
1
1
1
1
1
1
1
1
1
1
1
1
1
1
1
1
1
1
1
1
1
1
1
1
1
1
1
1
1
1
1
1
1
1
1
1
1
1
1
1
1
1
1
1
1
1
1
1
1
1
1
1
1
1
1
1
1
1
1
1
1
1
1
1
1
1
1
1
1
1
1
1
1
1
1
1
1
1
1
1
1
1
1
1
1
1
1
1
1
1
1
1
1
1
1
1
1
1
1
1
1
1
1
1
1
1
1
1
1
1
1
1
1
1
1
1
1
1
1
1
1
1
1
1
1
1
1
1
1
1
1
1
1
1
1
1
1
1
1
1
1
1
1
1
1
1
1
1
1
1
1
1
1
1
1
1
1
1
1
1
1
1
1
1
1
1
1
1
1
1
1
1
1
1
1
1
1
1
1
1
1
1
1
1
1
1
1
1
1
1
1
1
1
1
1
1
1
1
1
1
1
1
1
1
1
1
1
1
1
1
1
1
1
1
1
1
1
1
1
1
1
1
1
1
1
1
1
1
1
1
1
1
1
1
1
1
1
1
1
1
1
1
1
1
1
1
1
1
1
1
1
1
1
1
1
1
)
;

boundaryField
{
    walls
    {
        type            zeroGradient;
    }
    topInlet
    {
        type            fixedValue;
        value           uniform 1;
    }
    bottomInlet
    {
        type            fixedValue;
        value           uniform 0;
    }
    outlet
    {
        type            inletOutlet;
        inletValue      uniform 0;
        value           nonuniform List<scalar> 
20
(
3.97335e-20
4.90945e-20
3.50161e-19
4.01957e-18
7.70334e-17
2.72461e-15
2.77237e-14
1.68075e-13
9.31931e-10
0.0426612
0.912499
1
1
1
1
1
1
1
1
1
)
;
    }
    frontBack
    {
        type            empty;
    }
}


// ************************************************************************* //
