/*--------------------------------*- C++ -*----------------------------------*\
| =========                 |                                                 |
| \\      /  F ield         | OpenFOAM: The Open Source CFD Toolbox           |
|  \\    /   O peration     | Version:  4.x                                   |
|   \\  /    A nd           | Web:      www.OpenFOAM.org                      |
|    \\/     M anipulation  |                                                 |
\*---------------------------------------------------------------------------*/
FoamFile
{
    version     2.0;
    format      ascii;
    class       surfaceScalarField;
    location    "0.2";
    object      phi;
}
// * * * * * * * * * * * * * * * * * * * * * * * * * * * * * * * * * * * * * //

dimensions      [0 3 -1 0 0 0 0];

internalField   nonuniform List<scalar> 
1530
(
0.00147876
5.32796e-05
0.00142259
3.53516e-05
0.00137519
2.63109e-05
0.00133272
1.93052e-05
0.00129537
1.15525e-05
0.00126188
5.82747e-06
0.00123233
4.05971e-07
0.00120659
-4.4959e-06
0.0011848
-9.07597e-06
-1.39656e-05
0.00116926
0.0015488
5.60178e-05
0.00154143
4.27209e-05
0.00153382
3.39206e-05
0.00152524
2.78888e-05
0.00151482
2.19745e-05
0.00150391
1.67286e-05
0.0014921
1.22232e-05
0.00147912
8.48156e-06
0.00146566
4.38418e-06
6.05927e-07
0.00145109
0.00155089
5.48709e-05
0.00155082
4.27856e-05
0.00155024
3.45068e-05
0.00154938
2.87412e-05
0.00154798
2.33748e-05
0.00154632
1.8394e-05
0.00154449
1.40525e-05
0.00154277
1.01983e-05
0.00154094
6.21038e-06
2.03623e-06
0.00153951
0.00154811
5.39526e-05
0.00154914
4.17532e-05
0.00154979
3.38593e-05
0.00155066
2.78728e-05
0.00155171
2.23172e-05
0.00155277
1.73333e-05
0.00155377
1.30572e-05
0.00155451
9.45227e-06
0.00155419
6.53186e-06
4.23591e-06
0.00155199
0.00154541
5.28581e-05
0.00154691
4.02599e-05
0.00154777
3.299e-05
0.00154902
2.66304e-05
0.00155043
2.09027e-05
0.00155162
1.6146e-05
0.00155256
1.21197e-05
0.00155316
8.84563e-06
0.00155288
6.81641e-06
6.39047e-06
0.00155072
0.00154292
5.10008e-05
0.0015445
3.86832e-05
0.00154511
3.23848e-05
0.00154654
2.51964e-05
0.00154786
1.95805e-05
0.00154862
1.53919e-05
0.00154907
1.16689e-05
0.00154933
8.58101e-06
0.00154842
7.72976e-06
1.21521e-05
0.00154266
0.00173066
4.75379e-05
0.00172649
4.28522e-05
0.00172279
3.60839e-05
0.00171951
2.84757e-05
0.00171404
2.50513e-05
0.0017063
2.31319e-05
0.00169715
2.08229e-05
0.00168746
1.82688e-05
0.00167679
1.83964e-05
3.51416e-05
0.0016538
0.000779556
6.7474e-05
0.000743106
7.93022e-05
0.000709492
6.9698e-05
0.000675216
6.27525e-05
0.000641738
5.85288e-05
0.000610197
5.46726e-05
0.000580901
5.01194e-05
0.000554967
4.42029e-05
0.000537302
3.60606e-05
4.54426e-05
0.000527001
0.000280677
0.000157216
0.000225885
0.000134094
0.000191875
0.000103708
0.000169573
8.50545e-05
0.000154216
7.38854e-05
0.000142422
6.64672e-05
0.000132286
6.02555e-05
0.000123102
5.33862e-05
0.000117845
4.13179e-05
2.39729e-05
0.000139315
7.13632e-05
4.56832e-05
3.46154e-05
2.87195e-05
2.51231e-05
2.25645e-05
2.04379e-05
1.84184e-05
1.64435e-05
4.21745e-05
7.04476e-05
-0.000158748
4.49239e-05
-0.000134881
3.40074e-05
-0.000103928
2.82084e-05
-8.50681e-05
2.46694e-05
-7.38596e-05
2.21414e-05
-6.6404e-05
2.00317e-05
-6.01041e-05
1.80295e-05
-5.3074e-05
1.60998e-05
-4.0766e-05
-2.3385e-05
4.19753e-05
0.000279033
-6.75482e-05
0.000223887
-7.97348e-05
0.000189918
-6.9959e-05
0.00016771
-6.28598e-05
0.000152412
-5.85611e-05
0.000140627
-5.46193e-05
0.000130474
-4.99517e-05
0.000121285
-4.38846e-05
0.000116087
-3.55678e-05
-4.51497e-05
0.000137852
0.000778393
-4.68838e-05
0.00074094
-4.22821e-05
0.000706506
-3.55252e-05
0.00067149
-2.78432e-05
0.000637392
-2.44637e-05
0.000605346
-2.25731e-05
0.000575652
-2.02575e-05
0.000549463
-1.76958e-05
0.000531816
-1.79207e-05
-3.50855e-05
0.000521752
0.00173007
-5.05502e-05
0.00172577
-3.79838e-05
0.00172187
-3.16277e-05
0.00171837
-2.43426e-05
0.00171258
-1.86743e-05
0.00170445
-1.44428e-05
0.00169488
-1.06808e-05
0.00168476
-7.57511e-06
0.00167363
-6.79811e-06
-1.1448e-05
0.00165
0.00154247
-5.25271e-05
0.00154413
-3.9639e-05
0.00154475
-3.22541e-05
0.00154622
-2.5807e-05
0.00154755
-2.0011e-05
0.00154831
-1.5202e-05
0.00154877
-1.11367e-05
0.00154904
-7.8459e-06
0.00154808
-5.8406e-06
-5.5287e-06
0.00154216
0.001545
-5.3693e-05
0.00154658
-4.12139e-05
0.00154749
-3.31661e-05
0.00154877
-2.70889e-05
0.00155023
-2.1467e-05
0.00155145
-1.64274e-05
0.00155242
-1.20998e-05
0.00155302
-8.45044e-06
0.00155273
-5.5544e-06
-3.41631e-06
0.00155062
0.00154775
-5.46707e-05
0.00154885
-4.2307e-05
0.00154953
-3.3845e-05
0.00155043
-2.79925e-05
0.00155155
-2.25903e-05
0.0015527
-1.75725e-05
0.00155378
-1.3183e-05
0.00155456
-9.22799e-06
0.00155408
-5.07732e-06
-1.16507e-06
0.00155183
0.00155061
-5.59035e-05
0.00155057
-4.22663e-05
0.00154995
-3.32239e-05
0.00154903
-2.70751e-05
0.00154763
-2.11842e-05
0.00154596
-1.59108e-05
0.00154422
-1.14355e-05
0.00154245
-7.46249e-06
0.00154075
-3.37309e-06
3.47236e-07
0.00153923
0.00154854
-5.32483e-05
0.00154115
-3.48761e-05
0.0015335
-2.55715e-05
0.00152472
-1.82975e-05
0.00151424
-1.0706e-05
0.00150317
-4.84394e-06
0.00149106
6.81856e-07
0.0014779
5.68986e-06
0.00146428
1.02507e-05
1.49908e-05
0.00144964
0.00147754
0.00142081
0.00137308
0.00133048
0.00129292
0.00125935
0.00122984
0.00120424
0.00118257
0.00116695
0.00113795
2.27739e-05
0.00110728
2.07028e-05
0.00107606
1.76169e-05
0.00104583
1.22782e-05
0.00101662
6.743e-06
0.000989156
3.60255e-07
0.000964156
-6.9511e-06
0.000941295
-1.44385e-05
0.000919975
-2.19074e-05
0.000899306
-2.89137e-05
0.00087831
-3.50805e-05
0.000856483
-4.09902e-05
0.000833545
-4.6956e-05
0.000809371
-5.31391e-05
0.000783965
-5.96602e-05
0.000757422
-6.66386e-05
0.000729884
-7.405e-05
0.000701613
-8.20903e-05
0.000672884
-9.07602e-05
0.000643998
-0.000100154
0.000615198
-0.000110204
0.000586403
-0.000120765
0.000558111
-0.000127984
0.000533243
-0.000123714
0.000511485
-0.000121294
0.000492242
-0.00011901
0.00047478
-0.000116715
0.000460258
-0.000113754
0.000438789
-0.000114983
-6.76299e-05
0.0014358
3.80594e-05
0.0014192
3.73099e-05
0.00140195
3.48584e-05
0.00138356
3.06701e-05
0.00136461
2.56915e-05
0.00134455
2.04252e-05
0.00132261
1.49849e-05
0.00129879
9.38023e-06
0.001274
2.88679e-06
0.00124851
-3.42076e-06
0.00122265
-9.22216e-06
0.00119645
-1.47939e-05
0.00116975
-2.02504e-05
0.0011425
-2.5894e-05
0.00111462
-3.17807e-05
0.00108594
-3.79576e-05
0.00105643
-4.45366e-05
0.0010261
-5.17644e-05
0.000995027
-5.96847e-05
0.000963359
-6.84874e-05
0.000931236
-7.80808e-05
0.000898686
-8.82149e-05
0.00086665
-9.59475e-05
0.000837982
-9.50461e-05
0.000812031
-9.53424e-05
0.000788495
-9.54734e-05
0.000766886
-9.51065e-05
0.000747827
-9.46956e-05
0.00072481
-9.19656e-05
-5.19335e-05
0.0015345
4.3073e-05
0.00152917
4.26375e-05
0.00152329
4.07432e-05
0.00151676
3.71965e-05
0.00150972
3.27304e-05
0.00150214
2.80126e-05
0.00149389
2.32345e-05
0.00148486
1.84046e-05
0.00147427
1.34761e-05
0.00146212
8.73032e-06
0.0014477
5.20053e-06
0.00143118
1.7232e-06
0.00141266
-1.73153e-06
0.00139214
-5.36747e-06
0.0013696
-9.24583e-06
0.00134519
-1.35416e-05
0.00131881
-1.81599e-05
0.00129058
-2.35385e-05
0.00126059
-2.96921e-05
0.00122892
-3.682e-05
0.00119572
-4.48747e-05
0.00116118
-5.36787e-05
0.00112653
-6.12928e-05
0.00109479
-6.3312e-05
0.00106529
-6.58402e-05
0.0010379
-6.80889e-05
0.00101249
-6.96923e-05
0.000988759
-7.09642e-05
0.000964835
-6.80419e-05
-3.9279e-05
0.00155048
4.45867e-05
0.00154862
4.44929e-05
0.00154733
4.2041e-05
0.00154647
3.80503e-05
0.00154572
3.34833e-05
0.00154489
2.88436e-05
0.00154382
2.43079e-05
0.00154223
1.99932e-05
0.00153978
1.59198e-05
0.00153614
1.23763e-05
0.0015316
9.73852e-06
0.00152571
7.61634e-06
0.00151826
5.71699e-06
0.00150899
3.89665e-06
0.00149766
2.09149e-06
0.00148399
1.21062e-07
0.00146789
-2.0556e-06
0.00144908
-4.7264e-06
0.00142735
-7.96368e-06
0.00140268
-1.21483e-05
0.00137499
-1.71856e-05
0.00134446
-2.31494e-05
0.00131235
-2.9182e-05
0.00128172
-3.26841e-05
0.0012522
-3.63231e-05
0.00122395
-3.98311e-05
0.00119704
-4.27855e-05
0.00117148
-4.54024e-05
0.00114701
-4.35775e-05
-2.5886e-05
0.00154905
4.62605e-05
0.00154786
4.56871e-05
0.00154784
4.20589e-05
0.00154863
3.72583e-05
0.0015496
3.25133e-05
0.00155048
2.79676e-05
0.00155107
2.37166e-05
0.00155116
1.99031e-05
0.00155056
1.65192e-05
0.00154928
1.36547e-05
0.00154741
1.16111e-05
0.00154484
1.01883e-05
0.00154142
9.13602e-06
0.00153698
8.33177e-06
0.00153139
7.68443e-06
0.00152445
7.06394e-06
0.00151592
6.47413e-06
0.00150553
5.65696e-06
0.00149305
4.51795e-06
0.00147808
2.82183e-06
0.00146039
5.04167e-07
0.00143982
-2.58084e-06
0.001417
-6.36047e-06
0.00139409
-9.77317e-06
0.0013709
-1.31288e-05
0.00134761
-1.65456e-05
0.00132446
-1.9638e-05
0.00130156
-2.25041e-05
0.00127988
-2.18947e-05
-1.43638e-05
0.0015393
4.9619e-05
0.00153681
4.81723e-05
0.00153628
4.25898e-05
0.00153655
3.69901e-05
0.00153682
3.22416e-05
0.00153683
2.7956e-05
0.00153634
2.421e-05
0.00153515
2.10958e-05
0.00153314
1.8528e-05
0.0015303
1.64967e-05
0.00152676
1.51468e-05
0.00152261
1.4338e-05
0.00151791
1.384e-05
0.00151273
1.35102e-05
0.00150715
1.32652e-05
0.00150119
1.30205e-05
0.00149489
1.2774e-05
0.00148817
1.23803e-05
0.0014809
1.17852e-05
0.00147292
1.08027e-05
0.00146398
9.43929e-06
0.0014538
7.60346e-06
0.0014424
5.04344e-06
0.00143055
2.06993e-06
0.00141801
-5.8214e-07
0.00140471
-3.24846e-06
0.00139068
-5.60661e-06
0.00137595
-7.7743e-06
0.00136186
-7.81082e-06
-6.30171e-06
0.00164283
6.05923e-05
0.00163469
5.63139e-05
0.00163046
4.68157e-05
0.00162715
4.02963e-05
0.00162417
3.52268e-05
0.00162116
3.09677e-05
0.00161779
2.7578e-05
0.001614
2.48813e-05
0.00160988
2.26523e-05
0.00160561
2.07705e-05
0.00160152
1.92379e-05
0.00159786
1.79945e-05
0.00159478
1.69172e-05
0.00159238
1.59077e-05
0.00159073
1.49151e-05
0.00158985
1.39084e-05
0.00158969
1.29313e-05
0.00159013
1.1938e-05
0.00159101
1.09078e-05
0.00159206
9.7473e-06
0.00159304
8.46146e-06
0.00159363
7.01627e-06
0.00159341
5.26561e-06
0.00159223
3.24338e-06
0.00159008
1.5722e-06
0.00158679
3.56398e-08
0.00158235
-1.15864e-06
0.0015767
-2.12995e-06
0.00157141
-2.51611e-06
-2.44494e-06
0.000532715
5.4879e-05
0.000547533
4.14959e-05
0.000562665
3.1684e-05
0.00057721
2.5751e-05
0.000591108
2.13284e-05
0.000604025
1.80507e-05
0.000615967
1.56362e-05
0.000627045
1.38038e-05
0.000637341
1.23562e-05
0.000646943
1.11677e-05
0.000655975
1.02059e-05
0.000664513
9.45721e-06
0.00067258
8.84962e-06
0.000680192
8.29594e-06
0.000687366
7.7408e-06
0.00069412
7.1548e-06
0.000700467
6.58384e-06
0.0007064
6.00541e-06
0.0007119
5.40733e-06
0.000716934
4.71407e-06
0.000721466
3.92938e-06
0.00072543
3.05186e-06
0.00072864
2.05579e-06
0.000730898
9.85108e-07
0.000732395
7.5017e-08
0.000733184
-7.52584e-07
0.000733302
-1.27688e-06
0.000732847
-1.67489e-06
0.000732283
-1.95273e-06
-1.79697e-06
0.000167752
2.64417e-05
0.000193534
1.57139e-05
0.000213426
1.17923e-05
0.000229698
9.47902e-06
0.000243214
7.81228e-06
0.00025462
6.64478e-06
0.000264434
5.8217e-06
0.000273013
5.22531e-06
0.000280597
4.77225e-06
0.000287373
4.39147e-06
0.000293501
4.07739e-06
0.0002991
3.85876e-06
0.000304242
3.707e-06
0.000308979
3.55969e-06
0.000313347
3.37213e-06
0.00031738
3.12192e-06
0.000321102
2.8621e-06
0.000324526
2.58154e-06
0.000327657
2.27572e-06
0.000330495
1.8763e-06
0.000333035
1.38955e-06
0.000335256
8.30367e-07
0.000337079
2.33667e-07
0.000338399
-3.35472e-07
0.000339329
-8.54913e-07
0.000339907
-1.33047e-06
0.000340155
-1.52441e-06
0.000340154
-1.67464e-06
0.000340014
-1.81256e-06
-1.63765e-06
6.81275e-05
4.88685e-07
8.32622e-05
5.79252e-07
9.4398e-05
6.56401e-07
0.000103166
7.11132e-07
0.000110217
7.6088e-07
0.000116051
8.10931e-07
0.000121006
8.67203e-07
0.000125293
9.38023e-07
0.000129053
1.01221e-06
0.000132391
1.0539e-06
0.000135391
1.07681e-06
0.000138118
1.13149e-06
0.000140614
1.21162e-06
0.000142905
1.26895e-06
0.000145011
1.26518e-06
0.000146952
1.18178e-06
0.000148738
1.07592e-06
0.000150378
9.41655e-07
0.000151875
7.7855e-07
0.00015323
5.21371e-07
0.000154441
1.78023e-07
0.000155501
-2.28866e-07
0.000156371
-6.36347e-07
0.000157003
-9.67954e-07
0.000157451
-1.3027e-06
0.000157733
-1.61305e-06
0.000157861
-1.65171e-06
0.000157876
-1.69016e-06
0.000157814
-1.75025e-06
-1.57698e-06
6.80125e-05
-2.55486e-05
8.31627e-05
-1.4571e-05
9.43144e-05
-1.04953e-05
0.000103095
-8.06898e-06
0.000110155
-6.29963e-06
0.000115996
-5.03002e-06
0.000120956
-4.09298e-06
0.000125248
-3.35388e-06
0.000129012
-2.75183e-06
0.000132353
-2.28742e-06
0.000135357
-1.92724e-06
0.000138088
-1.59878e-06
0.000140586
-1.28636e-06
0.000142879
-1.02424e-06
0.000144988
-8.44259e-07
0.000146931
-7.60881e-07
0.00014872
-7.12669e-07
0.000150362
-7.00481e-07
0.000151861
-7.20677e-07
0.000153218
-8.35431e-07
0.000154431
-1.03512e-06
0.000155491
-1.28939e-06
0.000156362
-1.50722e-06
0.000156995
-1.60084e-06
0.000157443
-1.7505e-06
0.000157725
-1.89529e-06
0.000157852
-1.77838e-06
0.000157867
-1.70486e-06
0.000157803
-1.68696e-06
-1.51577e-06
0.000166566
-5.42633e-05
0.000192535
-4.05394e-05
0.000212581
-3.0542e-05
0.000228977
-2.44641e-05
0.000242588
-1.9911e-05
0.000254069
-1.65113e-05
0.000263944
-1.3968e-05
0.000272572
-1.19815e-05
0.000280198
-1.03779e-05
0.000287013
-9.10241e-06
0.000293177
-8.09099e-06
0.000298806
-7.22753e-06
0.000303974
-6.45532e-06
0.000308735
-5.78502e-06
0.000313128
-5.23728e-06
0.000317185
-4.81803e-06
0.00032093
-4.45756e-06
0.000324376
-4.14582e-06
0.000327527
-3.87188e-06
0.000330382
-3.69094e-06
0.000332938
-3.59038e-06
0.000335171
-3.5232e-06
0.000337002
-3.33776e-06
0.000338327
-2.92567e-06
0.000339257
-2.68114e-06
0.000339833
-2.47077e-06
0.000340075
-2.02068e-06
0.000340068
-1.6978e-06
0.000339919
-1.53824e-06
-1.35186e-06
0.000527869
-6.03802e-05
0.000543203
-5.58738e-05
0.000558776
-4.61152e-05
0.000573705
-3.93929e-05
0.000587937
-3.41429e-05
0.000601144
-2.97182e-05
0.000613337
-2.61616e-05
0.000624633
-2.32772e-05
0.000635125
-2.08706e-05
0.000644917
-1.88941e-05
0.000654127
-1.73004e-05
0.000662821
-1.59224e-05
0.00067103
-1.4664e-05
0.000678776
-1.35307e-05
0.000686084
-1.25455e-05
0.000692972
-1.17062e-05
0.000699449
-1.09346e-05
0.000705504
-1.02002e-05
0.000711116
-9.48468e-06
0.000716253
-8.82706e-06
0.000720875
-8.21279e-06
0.000724913
-7.56132e-06
0.000728175
-6.59952e-06
0.000730461
-5.21201e-06
0.000731969
-4.18864e-06
0.000732748
-3.25055e-06
0.000732842
-2.11416e-06
0.000732353
-1.20863e-06
0.000731746
-9.31962e-07
-6.78446e-07
0.00163871
-4.90995e-05
0.00163034
-4.75003e-05
0.00162595
-4.17208e-05
0.00162249
-3.59385e-05
0.00161938
-3.10279e-05
0.00161625
-2.65924e-05
0.00161278
-2.26878e-05
0.00160889
-1.93863e-05
0.00160467
-1.66531e-05
0.00160035
-1.4577e-05
0.00159627
-1.32172e-05
0.00159266
-1.23116e-05
0.00158967
-1.16744e-05
0.00158741
-1.12709e-05
0.00158595
-1.10917e-05
0.00158532
-1.10727e-05
0.00158545
-1.10675e-05
0.00158621
-1.09606e-05
0.00158742
-1.06868e-05
0.0015888
-1.02092e-05
0.00159009
-9.49973e-06
0.00159094
-8.41497e-06
0.00159092
-6.58301e-06
0.00158986
-4.15017e-06
0.00158774
-2.06337e-06
0.00158443
5.09221e-08
0.00157991
2.41049e-06
0.00157413
4.57313e-06
0.00156865
4.54717e-06
3.28551e-06
0.00153869
-4.56288e-05
0.00153611
-4.49169e-05
0.0015355
-4.11091e-05
0.00153568
-3.61233e-05
0.00153587
-3.12148e-05
0.00153579
-2.65176e-05
0.0015352
-2.20961e-05
0.00153388
-1.80647e-05
0.00153172
-1.44878e-05
0.00152872
-1.15802e-05
0.00152501
-9.5077e-06
0.00152066
-7.96049e-06
0.00151576
-6.77527e-06
0.0015104
-5.90701e-06
0.00150464
-5.3401e-06
0.00149855
-4.9835e-06
0.00149215
-4.65887e-06
0.00148534
-4.15565e-06
0.00147802
-3.36776e-06
0.00147
-2.18916e-06
0.00146103
-5.30377e-07
0.00145081
1.80394e-06
0.00143934
4.89327e-06
0.00142742
7.77162e-06
0.00141475
1.06058e-05
0.00140124
1.35547e-05
0.00138697
1.66821e-05
0.00137194
1.96021e-05
0.00135753
1.89624e-05
1.15612e-05
0.00154889
-4.38923e-05
0.00154766
-4.36906e-05
0.00154762
-4.10657e-05
0.00154838
-3.68907e-05
0.00154934
-3.21725e-05
0.00155021
-2.7388e-05
0.00155078
-2.26696e-05
0.00155081
-1.80904e-05
0.00155014
-1.38195e-05
0.00154884
-1.02819e-05
0.00154696
-7.61892e-06
0.00154431
-5.31481e-06
0.00154076
-3.2217e-06
0.00153617
-1.3195e-06
0.00153039
4.42817e-07
0.00152322
2.18327e-06
0.00151444
4.12288e-06
0.0015038
6.47695e-06
0.00149104
9.39962e-06
0.0014758
1.30448e-05
0.00145784
1.74356e-05
0.00143696
2.2679e-05
0.00141381
2.80413e-05
0.00139054
3.10423e-05
0.00136695
3.42039e-05
0.00134321
3.72912e-05
0.00131959
4.03011e-05
0.0012962
4.29943e-05
0.00127401
4.11468e-05
2.33535e-05
0.00155032
-4.23827e-05
0.00154844
-4.18093e-05
0.00154713
-3.97519e-05
0.00154626
-3.603e-05
0.00154554
-3.14523e-05
0.00154477
-2.66128e-05
0.00154376
-2.16583e-05
0.00154217
-1.65037e-05
0.00153963
-1.12811e-05
0.00153602
-6.67418e-06
0.00153139
-2.98847e-06
0.00152537
7.04643e-07
0.00151778
4.37639e-06
0.00150832
8.13476e-06
0.00149681
1.19552e-05
0.00148303
1.5961e-05
0.00146677
2.03882e-05
0.00144775
2.54916e-05
0.00142581
3.1338e-05
0.00140085
3.80135e-05
0.00137277
4.55107e-05
0.00134175
5.37007e-05
0.00130904
6.07459e-05
0.00127778
6.23047e-05
0.00124759
6.44008e-05
0.00121863
6.62512e-05
0.00119105
6.78722e-05
0.00116487
6.91805e-05
0.00113981
6.62078e-05
3.70837e-05
0.00153416
-3.73133e-05
0.00152878
-3.64233e-05
0.00152281
-3.37857e-05
0.00151621
-2.94254e-05
0.00150919
-2.44386e-05
0.00150163
-1.90445e-05
0.00149349
-1.35248e-05
0.00148441
-7.41975e-06
0.00147385
-7.19442e-07
0.00146144
5.73163e-06
0.00144686
1.15893e-05
0.00143029
1.72761e-05
0.00141182
2.28442e-05
0.00139127
2.86901e-05
0.0013688
3.44231e-05
0.00134434
4.04232e-05
0.00131789
4.68407e-05
0.0012895
5.38763e-05
0.00125923
6.16113e-05
0.00122714
7.01014e-05
0.00119335
7.9297e-05
0.00115808
8.89752e-05
0.00112258
9.62443e-05
0.00108999
9.48909e-05
0.00105964
9.47578e-05
0.00103144
9.44513e-05
0.0010053
9.40073e-05
0.000980944
9.3539e-05
0.000956422
9.07293e-05
5.00868e-05
0.00143434
-2.20143e-05
0.00141777
-1.98581e-05
0.00140056
-1.65744e-05
0.001382
-1.08616e-05
0.00136309
-5.53418e-06
0.00134286
1.18588e-06
0.00132066
8.67856e-06
0.00129683
1.64102e-05
0.00127213
2.39767e-05
0.00124686
3.09999e-05
0.00122132
3.71357e-05
0.00119537
4.32287e-05
0.00116886
4.93464e-05
0.00114186
5.56924e-05
0.00111403
6.22516e-05
0.00108529
6.91626e-05
0.00105559
7.65466e-05
0.00102493
8.45385e-05
0.000993385
9.31519e-05
0.000961096
0.00010239
0.000928199
0.000112194
0.000894749
0.000122425
0.000861754
0.00012924
0.00083218
0.000124465
0.00080536
0.000121578
0.000781034
0.000118777
0.000758778
0.000116263
0.000739195
0.000113122
0.000715673
0.000114252
6.60387e-05
0.00113566
0.00110497
0.00107379
0.00104379
0.00101466
0.000987552
0.000962942
0.000940493
0.000919494
0.000899016
0.000878082
0.000856311
0.000833394
0.000809198
0.000783645
0.000756802
0.000728851
0.000700064
0.000670726
0.000641112
0.00061147
0.000581749
0.000552528
0.000526829
0.000504299
0.000484369
0.000466401
0.000451492
0.000429737
)
;

boundaryField
{
    walls
    {
        type            calculated;
        value           nonuniform List<scalar> 
100
(
0.00026011
0.000159774
0.000114776
9.09504e-05
7.74818e-05
6.90258e-05
6.2382e-05
5.54057e-05
4.32928e-05
-1.75809e-06
2.13659e-05
2.08091e-05
2.10925e-05
2.31636e-05
2.57982e-05
2.76662e-05
2.91463e-05
3.02348e-05
3.0863e-05
2.951e-05
8.53215e-06
9.96269e-06
1.36077e-05
1.79548e-05
2.2465e-05
2.7102e-05
3.1951e-05
3.72996e-05
4.32274e-05
4.95829e-05
5.60764e-05
6.28175e-05
6.98936e-05
7.73131e-05
8.50661e-05
9.31814e-05
0.000101588
0.000110362
0.000119489
0.000129041
0.000139004
0.00014956
0.000156275
0.000148583
0.000143051
0.000138253
0.000134177
0.000128276
0.000136452
8.1627e-05
9.28204e-06
1.08262e-05
1.46063e-05
1.91418e-05
2.35902e-05
2.82985e-05
3.32885e-05
3.88596e-05
4.49759e-05
5.14782e-05
5.80695e-05
6.49989e-05
7.22636e-05
7.98891e-05
8.78042e-05
9.60057e-05
0.000104497
0.000113325
0.00012249
0.000132004
0.000141836
0.000152146
0.000158461
0.000150164
0.000144108
0.000138707
0.000134231
0.000128032
0.000136007
8.03443e-05
0.000262546
0.000160404
0.000114844
9.08671e-05
7.73986e-05
6.8932e-05
6.22138e-05
5.50762e-05
4.26957e-05
-2.49046e-06
2.22545e-05
2.18579e-05
2.21561e-05
2.42984e-05
2.68575e-05
2.87223e-05
3.01924e-05
3.12943e-05
3.19253e-05
3.0602e-05
)
;
    }
    topInlet
    {
        type            calculated;
        value           nonuniform List<scalar> 10(-0.000174246 -0.000370233 -0.000799057 -0.0017264 -0.00154049 -0.00154384 -0.00154678 -0.00154938 -0.00155119 -0.00155304);
    }
    bottomInlet
    {
        type            calculated;
        value           nonuniform List<scalar> 10(-0.0015534 -0.00155154 -0.00154974 -0.00154719 -0.00154432 -0.00154107 -0.0017272 -0.000799493 -0.000370418 -0.000174258);
    }
    outlet
    {
        type            calculated;
        value           nonuniform List<scalar> 
20
(
0.000424792
0.000709114
0.000952181
0.00113362
0.00126836
0.0013538
0.00156755
0.000731635
0.000339855
0.000157753
0.000157742
0.000339756
0.000731073
0.00156469
0.00134925
0.00126222
0.00112608
0.000943419
0.000699721
0.000415431
)
;
    }
    frontBack
    {
        type            empty;
        value           nonuniform 0();
    }
}


// ************************************************************************* //
