/*--------------------------------*- C++ -*----------------------------------*\
| =========                 |                                                 |
| \\      /  F ield         | OpenFOAM: The Open Source CFD Toolbox           |
|  \\    /   O peration     | Version:  4.x                                   |
|   \\  /    A nd           | Web:      www.OpenFOAM.org                      |
|    \\/     M anipulation  |                                                 |
\*---------------------------------------------------------------------------*/
FoamFile
{
    version     2.0;
    format      ascii;
    class       surfaceScalarField;
    location    "0.1";
    object      alphaPhi;
}
// * * * * * * * * * * * * * * * * * * * * * * * * * * * * * * * * * * * * * //

dimensions      [0 3 -1 0 0 0 0];

internalField   nonuniform List<scalar> 
1530
(
0
0
0
0
0
0
0
0
1.91153e-236
1.70475e-238
3.84784e-222
1.77697e-224
3.63452e-212
1.19734e-215
8.26866e-178
-2.00361e-198
2.40149e-167
-3.39139e-188
-9.88675e-180
7.7033e-159
0
0
0
0
0
0
0
0
1.2793e-237
1.8558e-239
1.19772e-223
1.33226e-225
7.43303e-215
6.0891e-217
6.59175e-196
3.77984e-198
5.47669e-186
1.63823e-188
4.28959e-181
1.02728e-177
0
0
0
0
0
0
0
0
1.22652e-238
1.85206e-240
7.77259e-225
9.24579e-227
3.21544e-216
2.92557e-218
9.98282e-197
6.59903e-199
3.84854e-187
1.55105e-189
1.18885e-182
8.98847e-180
0
0
0
0
0
0
0
0
1.22457e-239
1.76122e-241
5.35102e-226
5.97325e-228
1.52194e-217
1.27897e-219
1.53122e-197
9.31065e-200
3.14119e-188
1.32016e-190
5.87312e-184
2.15185e-181
0
0
0
0
0
0
0
0
1.18837e-240
1.60215e-242
3.51322e-227
3.65583e-229
6.744e-219
5.26457e-221
2.30343e-198
1.31186e-200
2.79393e-189
1.2264e-191
4.45293e-185
1.08056e-182
0
0
0
0
0
0
0
0
1.10868e-241
1.40249e-243
2.19518e-228
2.18182e-230
2.82769e-220
2.13005e-222
3.57085e-199
1.97772e-201
2.80237e-190
1.39895e-192
6.77838e-186
8.60488e-184
0
0
0
0
0
0
0
0
1.06239e-242
1.55273e-244
1.43732e-229
1.94854e-231
1.2659e-221
1.55318e-223
1.4483e-199
1.56796e-201
9.20999e-191
1.01044e-192
7.24762e-186
3.41081e-184
0
0
0
0
0
0
0
0
4.50175e-242
4.10576e-243
1.72748e-227
1.5478e-228
6.38161e-217
5.50597e-218
1.38331e-181
1.1018e-182
6.33712e-171
4.25311e-172
4.89702e-165
5.67911e-164
0
0
0
0
0
0
0
0
1.1115e-216
5.32522e-217
3.10454e-200
1.44887e-200
6.74859e-189
3.07395e-189
3.99175e-153
1.73111e-153
2.73417e-141
9.58636e-142
1.10547e-135
6.42429e-135
0
0
0
0
5.54018e-214
2.26534e-196
2.42499e-184
1.15047e-147
4.49713e-132
9.87381e-111
7.04476e-05
-0.000158748
4.49239e-05
-0.000134881
3.40074e-05
-0.000103928
2.82084e-05
-8.50681e-05
2.46694e-05
-7.38596e-05
2.21414e-05
-6.6404e-05
2.00317e-05
-6.01041e-05
1.80295e-05
-5.3074e-05
1.60998e-05
-4.0766e-05
-2.3385e-05
4.19753e-05
0.000279033
-6.75482e-05
0.000223887
-7.97348e-05
0.000189918
-6.9959e-05
0.00016771
-6.28598e-05
0.000152412
-5.85611e-05
0.000140627
-5.46193e-05
0.000130474
-4.99517e-05
0.000121285
-4.38846e-05
0.000116087
-3.55678e-05
-4.51497e-05
0.000137852
0.000778393
-4.68838e-05
0.00074094
-4.22821e-05
0.000706506
-3.55252e-05
0.00067149
-2.78432e-05
0.000637392
-2.44637e-05
0.000605346
-2.25731e-05
0.000575652
-2.02575e-05
0.000549463
-1.76958e-05
0.000531816
-1.79207e-05
-3.50855e-05
0.000521752
0.00173007
-5.05502e-05
0.00172577
-3.79838e-05
0.00172187
-3.16277e-05
0.00171837
-2.43426e-05
0.00171258
-1.86743e-05
0.00170445
-1.44428e-05
0.00169488
-1.06808e-05
0.00168476
-7.57511e-06
0.00167363
-6.79811e-06
-1.1448e-05
0.00165
0.00154247
-5.25271e-05
0.00154413
-3.9639e-05
0.00154475
-3.22541e-05
0.00154622
-2.5807e-05
0.00154755
-2.0011e-05
0.00154831
-1.5202e-05
0.00154877
-1.11367e-05
0.00154904
-7.8459e-06
0.00154808
-5.8406e-06
-5.5287e-06
0.00154216
0.001545
-5.3693e-05
0.00154658
-4.12139e-05
0.00154749
-3.31661e-05
0.00154877
-2.70889e-05
0.00155023
-2.1467e-05
0.00155145
-1.64274e-05
0.00155242
-1.20998e-05
0.00155302
-8.45044e-06
0.00155273
-5.5544e-06
-3.41631e-06
0.00155062
0.00154775
-5.46707e-05
0.00154885
-4.2307e-05
0.00154953
-3.3845e-05
0.00155043
-2.79925e-05
0.00155155
-2.25903e-05
0.0015527
-1.75725e-05
0.00155378
-1.3183e-05
0.00155456
-9.22799e-06
0.00155408
-5.07732e-06
-1.16507e-06
0.00155183
0.00155061
-5.59035e-05
0.00155057
-4.22663e-05
0.00154995
-3.32239e-05
0.00154903
-2.70751e-05
0.00154763
-2.11842e-05
0.00154596
-1.59108e-05
0.00154422
-1.14355e-05
0.00154245
-7.46249e-06
0.00154075
-3.37309e-06
3.47236e-07
0.00153923
0.00154854
-5.32483e-05
0.00154115
-3.48761e-05
0.0015335
-2.55715e-05
0.00152472
-1.82975e-05
0.00151424
-1.0706e-05
0.00150317
-4.84394e-06
0.00149106
6.81856e-07
0.0014779
5.68986e-06
0.00146428
1.02507e-05
1.49908e-05
0.00144964
0.00147754
0.00142081
0.00137308
0.00133048
0.00129292
0.00125935
0.00122984
0.00120424
0.00118257
0.00116695
3.65067e-158
7.30614e-160
1.91838e-157
3.58677e-159
2.83852e-138
4.64712e-140
5.42529e-124
6.36939e-126
3.01457e-111
1.9995e-113
1.03927e-95
3.78507e-99
1.91543e-85
-4.83295e-100
7.68702e-77
-9.60325e-96
2.32206e-69
-3.34122e-86
9.04619e-63
-8.16993e-78
6.60031e-57
-2.20514e-70
1.11625e-51
-1.01252e-63
5.171e-47
-9.55354e-58
7.5489e-43
-2.15714e-52
3.89392e-39
-1.32856e-47
7.81565e-36
-2.51229e-43
6.65053e-33
-1.63357e-39
2.57876e-30
-4.00719e-36
4.90582e-28
-4.08316e-33
4.89231e-26
-1.86788e-30
2.83363e-24
-4.32319e-28
9.37418e-23
-4.98274e-26
1.74423e-21
-2.56166e-24
1.42714e-20
-3.60116e-23
7.68036e-20
-3.13818e-22
3.11516e-19
-1.99017e-21
1.00866e-18
-9.87876e-21
2.7015e-18
-3.99053e-20
6.09947e-18
-1.47386e-19
-3.03458e-19
1.63164e-159
4.32505e-161
1.39927e-158
3.6786e-160
1.97708e-139
4.91585e-141
2.6059e-125
5.77662e-127
7.92078e-113
1.49124e-114
1.46092e-98
2.2193e-100
9.19585e-98
1.04187e-99
8.63849e-94
6.23894e-96
1.94305e-84
4.40282e-87
3.52782e-76
-2.94918e-86
7.68552e-69
-4.11933e-78
2.95543e-62
-8.08475e-71
2.37993e-56
-2.9131e-64
4.6379e-51
-2.37411e-58
2.48213e-46
-5.42017e-53
4.09403e-42
-3.74837e-48
2.33052e-38
-8.61809e-44
5.00886e-35
-7.0583e-40
4.47647e-32
-2.24052e-36
1.79666e-29
-2.94257e-33
3.65315e-27
-1.7954e-30
3.70799e-25
-4.91138e-28
1.73469e-23
-5.07746e-26
2.439e-22
-1.04507e-24
2.09949e-21
-1.30042e-23
1.31801e-20
-1.16766e-22
6.5236e-20
-8.16314e-22
2.65341e-19
-4.66818e-21
9.29814e-19
-2.25939e-20
-5.4786e-20
8.88896e-161
2.4951e-162
1.08358e-159
3.02131e-161
1.63947e-140
4.38508e-142
1.83339e-126
4.49614e-128
4.5333e-114
9.82808e-116
6.49172e-100
1.21061e-101
6.6012e-99
1.02669e-100
5.12918e-95
6.35753e-97
3.4352e-86
3.14007e-88
1.26056e-83
7.52679e-86
6.46654e-76
2.32296e-78
7.82127e-69
9.41713e-72
2.03217e-62
-8.16987e-68
1.27639e-56
-1.8235e-61
2.33584e-51
-7.5476e-56
1.32839e-46
-9.0311e-51
2.55197e-42
-3.39693e-46
1.75977e-38
-4.68589e-42
4.73216e-35
-2.53527e-38
5.28008e-32
-5.70479e-35
2.74944e-29
-5.92531e-32
6.46494e-27
-2.67971e-29
5.96136e-25
-4.23137e-27
1.20352e-23
-1.09669e-25
1.45252e-22
-1.71408e-24
1.27086e-21
-1.98202e-23
8.73484e-21
-1.80436e-22
4.89605e-20
-1.28422e-21
2.35297e-19
-7.26077e-21
-1.98084e-20
5.06279e-162
1.45589e-163
8.20399e-161
2.35706e-162
1.40746e-141
3.82409e-143
1.36749e-127
3.36464e-129
2.84816e-115
6.16968e-117
3.35705e-101
6.26772e-103
4.84969e-100
7.636e-102
4.09245e-96
5.30538e-98
1.882e-87
1.94581e-89
1.55151e-84
1.25001e-86
4.6816e-77
2.97675e-79
1.93042e-70
9.63668e-73
7.16357e-65
2.69744e-67
5.12653e-59
1.32382e-61
1.22257e-53
1.70733e-56
9.89696e-49
8.07378e-53
2.74578e-44
-9.34313e-48
2.88473e-40
-2.69091e-43
1.21875e-36
-2.16076e-39
2.17327e-33
-6.59953e-36
1.81555e-30
-8.84491e-33
6.71172e-28
-5.30155e-30
9.05938e-26
-1.07516e-27
2.21976e-24
-3.24945e-26
3.26014e-23
-5.90836e-25
3.56948e-22
-1.25301e-23
3.11134e-21
-2.29771e-22
2.11838e-20
-1.50782e-21
1.20855e-19
-5.97349e-21
-1.31991e-20
2.95047e-163
8.8112e-165
6.16091e-162
1.81848e-163
1.22646e-142
3.33262e-144
1.02202e-128
2.45888e-130
1.78273e-116
3.74047e-118
1.72971e-102
3.12006e-104
3.29889e-101
5.04418e-103
3.31234e-97
4.2501e-99
1.1246e-88
1.19811e-90
2.39211e-85
2.10831e-87
5.96186e-78
4.47354e-80
2.28776e-71
1.5088e-73
1.53848e-65
9.1186e-68
4.8918e-60
2.65178e-62
1.64542e-54
8.25663e-57
1.88178e-49
8.71973e-52
6.89014e-45
2.94262e-47
8.57154e-41
3.22071e-43
4.05105e-37
1.22584e-39
8.02965e-34
1.53296e-36
7.51624e-31
2.59502e-34
3.29739e-28
-1.30581e-30
5.22021e-26
-4.88854e-28
1.38574e-24
-1.92431e-26
2.23097e-23
-4.13368e-25
4.25021e-22
-8.11864e-23
7.13022e-21
-4.3473e-21
4.29765e-20
-2.17742e-20
1.72643e-19
-4.51188e-20
-4.34738e-20
1.78938e-164
5.76803e-166
4.66688e-163
1.46286e-164
1.08566e-143
3.00974e-145
7.59464e-130
1.8283e-131
1.09863e-117
2.30486e-119
8.74731e-104
1.59119e-105
2.13401e-102
3.36282e-104
2.79234e-98
3.83721e-100
7.26462e-90
8.77933e-92
6.27815e-86
6.76788e-88
-1.69877e-78
-1.68533e-80
-1.148e-70
-1.08104e-72
-5.05139e-64
-4.60576e-66
-3.97043e-58
-3.54598e-60
-5.0904e-53
-4.48031e-55
-1.58629e-48
-1.37586e-50
-9.67081e-45
-8.2638e-47
8.91989e-41
7.42062e-43
7.38621e-37
5.87803e-39
1.70438e-33
1.25003e-35
1.66146e-30
1.07126e-32
7.3551e-28
3.84668e-30
1.10827e-25
3.87422e-28
2.81604e-24
4.07264e-27
4.47042e-23
-9.6389e-26
6.91943e-21
-1.5871e-21
3.08127e-19
-2.79608e-19
1.31607e-18
-9.84401e-19
2.75402e-18
-1.58026e-18
-1.17122e-18
1.23132e-165
4.54147e-167
3.99518e-164
1.37631e-165
1.13369e-144
3.25517e-146
6.49368e-131
1.60815e-132
7.7337e-119
1.67737e-120
5.06194e-105
9.66942e-107
1.68966e-103
2.88032e-105
4.82567e-99
7.4392e-101
-2.86073e-89
-4.02527e-91
-8.6285e-81
-1.11621e-82
-2.46878e-73
-2.96557e-75
-2.08512e-66
-2.34819e-68
-3.28038e-60
-3.47978e-62
-1.10379e-54
-1.10267e-56
-6.77366e-50
-6.35114e-52
-1.23677e-45
-1.08195e-47
-8.07243e-42
-6.56652e-44
-1.48186e-38
-1.11251e-40
-9.51902e-36
-6.52617e-38
-2.03767e-33
-1.24755e-35
8.03916e-31
4.27002e-33
2.82925e-27
1.24562e-29
5.97546e-25
1.97446e-27
1.642e-23
3.34472e-26
2.68841e-22
2.66862e-25
7.84312e-19
2.56835e-23
7.87809e-17
-7.80311e-17
1.95102e-16
-1.58573e-16
3.1025e-16
-2.68457e-16
-2.46858e-16
2.12432e-163
2.18843e-164
7.76453e-163
5.8845e-164
3.57284e-137
2.01189e-138
1.74769e-126
7.79697e-128
2.31394e-117
8.34918e-119
-2.10106e-101
-6.27879e-103
-1.08081e-93
-2.74361e-95
-1.20061e-86
-2.64303e-88
-1.95466e-78
-3.78953e-80
-8.01589e-72
-1.38373e-73
-6.48038e-66
-1.00825e-67
-2.3628e-60
-3.36269e-62
-3.0996e-55
-4.07837e-57
-1.45721e-50
-1.77729e-52
-1.9913e-46
-2.24251e-48
-1.141e-42
-1.17611e-44
-3.2314e-39
-3.03726e-41
-3.2023e-36
-2.72241e-38
-1.4371e-33
-1.09157e-35
-3.39783e-31
-2.23418e-33
-3.91715e-29
-2.13343e-31
-1.60599e-27
-6.75623e-30
-2.1787e-27
-6.14622e-30
1.86037e-27
2.94171e-26
1.80155e-26
2.52699e-25
1.85859e-13
-1.85901e-13
4.90098e-13
-4.576e-13
8.517e-13
-7.95536e-13
9.7051e-13
-9.67313e-13
-9.46574e-13
1.60606e-134
2.53152e-135
3.68063e-134
2.98847e-135
8.58049e-119
4.74093e-120
4.92994e-113
2.03446e-114
2.87504e-107
9.23495e-109
-6.85153e-95
-1.78804e-96
-1.14803e-85
-2.52747e-87
-1.31925e-79
-2.52498e-81
-1.92568e-73
-3.2751e-75
-9.02769e-68
-1.37956e-69
-1.49135e-62
-2.07181e-64
-1.27497e-57
-1.64488e-59
-5.81306e-53
-7.08284e-55
-1.31395e-48
-1.51379e-50
-1.09675e-44
-1.18028e-46
-4.58661e-41
-4.51164e-43
-1.13954e-37
-1.01572e-39
-9.99377e-35
-7.94986e-37
-4.80311e-32
-3.33596e-34
-1.67609e-29
-9.51557e-32
-2.606e-27
-1.08732e-29
-4.79684e-25
-1.18806e-27
-1.39053e-22
-9.63472e-26
1.5312e-10
-1.5312e-10
6.37959e-10
-4.87998e-10
1.43647e-09
-8.08786e-10
2.23133e-09
-8.12907e-10
3.11385e-09
-9.01841e-10
3.59506e-09
-5.02845e-10
1.50442e-09
2.53963e-111
8.53076e-111
6.24389e-112
1.91524e-111
1.55353e-112
4.69036e-112
4.98104e-113
1.1949e-112
2.18883e-109
7.04662e-109
-1.03846e-92
-7.25647e-95
-4.9395e-84
-3.53996e-86
-2.82149e-78
-2.11235e-80
-4.50678e-72
-3.53483e-74
-1.40836e-66
-1.12113e-68
-1.62339e-61
-1.29114e-63
-1.02448e-56
-8.3927e-59
-3.66984e-52
-3.16218e-54
-7.01869e-48
-6.2324e-50
-5.20325e-44
-4.53967e-46
-2.05884e-40
-1.65571e-42
-5.12816e-37
-3.70956e-39
-4.40503e-34
-2.7584e-36
-2.16134e-31
-1.10796e-33
-8.15811e-29
-2.77583e-31
-1.31936e-26
-1.52082e-29
1.29294e-07
-1.29292e-07
4.90527e-07
-3.61215e-07
1.04358e-06
-5.53166e-07
1.79274e-06
-7.50465e-07
2.73126e-06
-9.38548e-07
3.71092e-06
-9.74843e-07
4.72002e-06
-1.01925e-06
5.83131e-06
-1.04728e-06
-9.20475e-07
6.75238e-05
-2.55486e-05
8.20948e-05
-1.4571e-05
9.25901e-05
-1.04953e-05
0.000100659
-8.06898e-06
0.000106959
-6.29963e-06
0.000111989
-5.03002e-06
0.000116082
-4.09298e-06
0.000119436
-3.35388e-06
0.000122187
-2.75183e-06
0.000124475
-2.28742e-06
0.000126406
-1.92723e-06
0.000128005
-1.59878e-06
0.000129291
-1.28636e-06
0.000130316
-1.02424e-06
0.00013116
-8.44259e-07
0.000131921
-7.60881e-07
0.000132634
-7.12669e-07
0.000133334
-7.00481e-07
0.000134055
-7.20677e-07
0.00013489
-8.35431e-07
0.000135911
-1.03512e-06
0.000137071
-1.28937e-06
0.000138217
-1.50719e-06
0.000139265
-1.60084e-06
0.000140265
-1.75055e-06
0.000141222
-1.89514e-06
0.000142032
-1.78091e-06
0.000142722
-1.71979e-06
0.000143391
-1.6686e-06
-1.44397e-06
0.000166566
-5.42633e-05
0.000192535
-4.05394e-05
0.000212581
-3.0542e-05
0.000228977
-2.44641e-05
0.000242588
-1.9911e-05
0.000254069
-1.65113e-05
0.000263944
-1.3968e-05
0.000272572
-1.19815e-05
0.000280198
-1.03779e-05
0.000287013
-9.10242e-06
0.000293177
-8.09099e-06
0.000298806
-7.22753e-06
0.000303974
-6.45532e-06
0.000308735
-5.78501e-06
0.000313128
-5.23728e-06
0.000317185
-4.81803e-06
0.00032093
-4.45756e-06
0.000324376
-4.14582e-06
0.000327527
-3.87188e-06
0.000330382
-3.69095e-06
0.000332938
-3.59038e-06
0.000335171
-3.52315e-06
0.000337002
-3.33758e-06
0.000338327
-2.9257e-06
0.000339259
-2.68279e-06
0.000339838
-2.47399e-06
0.000340077
-2.02062e-06
0.000340054
-1.69631e-06
0.000339886
-1.50061e-06
-1.27125e-06
0.000527869
-6.03802e-05
0.000543203
-5.58738e-05
0.000558776
-4.61152e-05
0.000573705
-3.93929e-05
0.000587937
-3.41429e-05
0.000601144
-2.97182e-05
0.000613337
-2.61616e-05
0.000624633
-2.32772e-05
0.000635125
-2.08706e-05
0.000644917
-1.88941e-05
0.000654127
-1.73004e-05
0.000662821
-1.59224e-05
0.00067103
-1.4664e-05
0.000678776
-1.35307e-05
0.000686084
-1.25455e-05
0.000692972
-1.17062e-05
0.000699449
-1.09346e-05
0.000705504
-1.02002e-05
0.000711116
-9.48468e-06
0.000716253
-8.82706e-06
0.000720875
-8.2128e-06
0.000724913
-7.56122e-06
0.000728175
-6.59905e-06
0.000730461
-5.21193e-06
0.000731971
-4.19336e-06
0.000732759
-3.2618e-06
0.000732849
-2.11099e-06
0.000732323
-1.1694e-06
0.000731674
-8.52122e-07
-5.74001e-07
0.00163871
-4.90995e-05
0.00163034
-4.75003e-05
0.00162595
-4.17208e-05
0.00162249
-3.59385e-05
0.00161938
-3.10279e-05
0.00161625
-2.65924e-05
0.00161278
-2.26878e-05
0.00160889
-1.93863e-05
0.00160467
-1.66531e-05
0.00160035
-1.4577e-05
0.00159627
-1.32172e-05
0.00159266
-1.23116e-05
0.00158967
-1.16744e-05
0.00158741
-1.12709e-05
0.00158595
-1.10917e-05
0.00158532
-1.10727e-05
0.00158545
-1.10675e-05
0.00158621
-1.09606e-05
0.00158742
-1.06868e-05
0.0015888
-1.02092e-05
0.00159009
-9.49975e-06
0.00159094
-8.41482e-06
0.00159092
-6.58185e-06
0.00158986
-4.14917e-06
0.00158774
-2.07403e-06
0.00158446
1.69591e-08
0.00157994
2.41233e-06
0.00157406
4.70733e-06
0.00156846
4.74747e-06
3.471e-06
0.00153869
-4.56288e-05
0.00153611
-4.49169e-05
0.0015355
-4.11091e-05
0.00153568
-3.61233e-05
0.00153587
-3.12148e-05
0.00153579
-2.65176e-05
0.0015352
-2.20961e-05
0.00153388
-1.80647e-05
0.00153172
-1.44878e-05
0.00152872
-1.15802e-05
0.00152501
-9.50769e-06
0.00152066
-7.96049e-06
0.00151576
-6.77527e-06
0.0015104
-5.90701e-06
0.00150464
-5.3401e-06
0.00149855
-4.9835e-06
0.00149215
-4.65887e-06
0.00148534
-4.15565e-06
0.00147802
-3.36776e-06
0.00147
-2.18916e-06
0.00146103
-5.30416e-07
0.00145081
1.80414e-06
0.00143934
4.89506e-06
0.00142741
7.77399e-06
0.00141475
1.05903e-05
0.00140127
1.34948e-05
0.00138702
1.66595e-05
0.00137192
1.98143e-05
0.0013573
1.93648e-05
1.19053e-05
0.00154889
-4.38923e-05
0.00154766
-4.36906e-05
0.00154762
-4.10657e-05
0.00154838
-3.68907e-05
0.00154934
-3.21725e-05
0.00155021
-2.7388e-05
0.00155078
-2.26696e-05
0.00155081
-1.80904e-05
0.00155014
-1.38195e-05
0.00154884
-1.02819e-05
0.00154696
-7.61892e-06
0.00154431
-5.31481e-06
0.00154076
-3.2217e-06
0.00153617
-1.3195e-06
0.00153039
4.42818e-07
0.00152322
2.18327e-06
0.00151444
4.12288e-06
0.0015038
6.47695e-06
0.00149104
9.39962e-06
0.0014758
1.30448e-05
0.00145784
1.74356e-05
0.00143696
2.26791e-05
0.00141381
2.8044e-05
0.00139054
3.10484e-05
0.00136694
3.41879e-05
0.00134324
3.71949e-05
0.0013197
4.01984e-05
0.0012963
4.32143e-05
0.00127386
4.1811e-05
2.39356e-05
0.00155032
-4.23827e-05
0.00154844
-4.18093e-05
0.00154713
-3.97519e-05
0.00154626
-3.603e-05
0.00154554
-3.14523e-05
0.00154477
-2.66128e-05
0.00154376
-2.16583e-05
0.00154217
-1.65037e-05
0.00153963
-1.12811e-05
0.00153602
-6.67418e-06
0.00153139
-2.98847e-06
0.00152537
7.04643e-07
0.00151778
4.37639e-06
0.00150832
8.13476e-06
0.00149681
1.19552e-05
0.00148303
1.5961e-05
0.00146677
2.03882e-05
0.00144775
2.54916e-05
0.00142581
3.1338e-05
0.00140085
3.80135e-05
0.00137277
4.55105e-05
0.00134175
5.37006e-05
0.00130904
6.07489e-05
0.00127778
6.23164e-05
0.00124757
6.43975e-05
0.00121863
6.61297e-05
0.00119122
6.76144e-05
0.00116521
6.9221e-05
0.00113999
6.70284e-05
3.79157e-05
0.00153416
-3.73133e-05
0.00152878
-3.64233e-05
0.00152281
-3.37857e-05
0.00151621
-2.94254e-05
0.00150919
-2.44386e-05
0.00150163
-1.90445e-05
0.00149349
-1.35248e-05
0.00148441
-7.41975e-06
0.00147385
-7.19441e-07
0.00146144
5.73162e-06
0.00144686
1.15893e-05
0.00143029
1.72761e-05
0.00141182
2.28442e-05
0.00139127
2.86901e-05
0.0013688
3.44231e-05
0.00134434
4.04232e-05
0.00131789
4.68407e-05
0.0012895
5.38763e-05
0.00125923
6.16113e-05
0.00122714
7.01014e-05
0.00119335
7.92969e-05
0.00115808
8.89746e-05
0.00112258
9.62462e-05
0.00108999
9.49097e-05
0.0010596
9.47867e-05
0.00103139
9.43401e-05
0.00100545
9.35499e-05
0.000981516
9.31593e-05
0.000957136
9.14081e-05
5.10025e-05
0.00143434
-2.20143e-05
0.00141777
-1.98581e-05
0.00140056
-1.65744e-05
0.001382
-1.08616e-05
0.00136309
-5.53418e-06
0.00134286
1.18588e-06
0.00132066
8.67856e-06
0.00129683
1.64102e-05
0.00127213
2.39767e-05
0.00124686
3.09999e-05
0.00122132
3.71357e-05
0.00119537
4.32287e-05
0.00116886
4.93464e-05
0.00114186
5.56924e-05
0.00111403
6.22516e-05
0.00108529
6.91626e-05
0.00105559
7.65466e-05
0.00102493
8.45385e-05
0.000993385
9.31519e-05
0.000961096
0.00010239
0.000928199
0.000112194
0.000894749
0.000122425
0.000861758
0.000129237
0.000832189
0.000124479
0.00080532
0.000121656
0.000780859
0.000118801
0.00075873
0.00011568
0.000739915
0.000111974
0.000717005
0.000114318
6.69338e-05
0.00113566
0.00110497
0.00107379
0.00104379
0.00101466
0.000987552
0.000962942
0.000940493
0.000919494
0.000899016
0.000878082
0.000856311
0.000833394
0.000809198
0.000783645
0.000756802
0.000728851
0.000700064
0.000670726
0.000641112
0.00061147
0.000581748
0.000552533
0.000526857
0.000504297
0.000484114
0.000465953
0.000451835
0.000431296
)
;

boundaryField
{
    walls
    {
        type            calculated;
        value           nonuniform List<scalar> 
100
(
0
0
0
0
1.70864e-213
6.92978e-196
7.40171e-184
3.46081e-147
1.18401e-131
-4.11601e-112
0
0
0
0
3.80695e-238
8.43625e-224
8.59615e-214
2.07197e-179
6.25567e-169
1.94418e-160
2.73721e-160
1.72604e-159
3.58956e-140
9.31417e-126
6.66152e-113
2.84751e-97
6.34751e-87
3.04605e-78
1.09108e-70
4.98759e-64
4.21402e-58
8.187e-53
4.33594e-48
7.2109e-44
4.22519e-40
9.61515e-37
9.25647e-34
4.05632e-31
8.71161e-29
9.80292e-27
6.4026e-25
2.39086e-23
4.88364e-22
3.97614e-21
2.14962e-20
8.77217e-20
2.84539e-19
7.4055e-19
1.87368e-18
2.76237e-18
9.28204e-06
1.08262e-05
1.46063e-05
1.91418e-05
2.35902e-05
2.82985e-05
3.32885e-05
3.88596e-05
4.49759e-05
5.14782e-05
5.80695e-05
6.49989e-05
7.22636e-05
7.98891e-05
8.78042e-05
9.60057e-05
0.000104497
0.000113325
0.00012249
0.000132004
0.000141836
0.000152146
0.000158452
0.000150156
0.000144215
0.000138984
0.000133841
0.000126092
0.000134857
8.06992e-05
0.000262546
0.000160404
0.000114844
9.08671e-05
7.73986e-05
6.8932e-05
6.22138e-05
5.50762e-05
4.26957e-05
-2.49046e-06
2.22545e-05
2.18579e-05
2.21561e-05
2.42984e-05
2.68575e-05
2.87223e-05
3.01924e-05
3.12943e-05
3.19253e-05
3.0602e-05
)
;
    }
    topInlet
    {
        type            calculated;
        value           nonuniform List<scalar> 10(-0.000174246 -0.000370233 -0.000799057 -0.0017264 -0.00154049 -0.00154384 -0.00154678 -0.00154938 -0.00155119 -0.00155304);
    }
    bottomInlet
    {
        type            calculated;
        value           uniform 0;
    }
    outlet
    {
        type            calculated;
        value           nonuniform List<scalar> 
20
(
1.43636e-17
3.14411e-18
9.87628e-19
5.60324e-19
6.34132e-19
4.02883e-18
2.88518e-16
6.28226e-13
2.06856e-09
6.62748e-06
0.000143832
0.000339713
0.000730974
0.00156441
0.00134886
0.00126182
0.00112599
0.000943978
0.000700764
0.000416976
)
;
    }
    frontBack
    {
        type            empty;
        value           nonuniform 0();
    }
}


// ************************************************************************* //
