/*--------------------------------*- C++ -*----------------------------------*\
| =========                 |                                                 |
| \\      /  F ield         | OpenFOAM: The Open Source CFD Toolbox           |
|  \\    /   O peration     | Version:  4.x                                   |
|   \\  /    A nd           | Web:      www.OpenFOAM.org                      |
|    \\/     M anipulation  |                                                 |
\*---------------------------------------------------------------------------*/
FoamFile
{
    version     2.0;
    format      ascii;
    class       volScalarField;
    location    "0.1";
    object      alpha.upper;
}
// * * * * * * * * * * * * * * * * * * * * * * * * * * * * * * * * * * * * * //

dimensions      [0 0 0 0 0 0 0];

internalField   nonuniform List<scalar> 
800
(
0
0
0
0
1.47566e-233
3.0493e-219
2.94931e-209
6.85293e-175
2.02692e-164
6.58821e-156
0
0
0
0
8.44524e-235
7.964e-221
4.9816e-212
4.45653e-193
3.73667e-183
7.07938e-175
0
0
0
0
7.92334e-236
5.02652e-222
2.08188e-213
6.47071e-194
2.49752e-184
5.83851e-177
0
0
0
0
7.89173e-237
3.44611e-223
9.79513e-215
9.85018e-195
2.02111e-185
1.38651e-178
0
0
0
0
7.66477e-238
2.26423e-224
4.3438e-216
1.48306e-195
1.79919e-186
6.96807e-180
0
0
0
0
7.16268e-239
1.41751e-225
1.82542e-217
2.30477e-196
1.80983e-187
5.57797e-181
0
0
0
0
6.19819e-240
8.42362e-227
7.459e-219
8.58273e-197
5.49263e-188
2.06241e-181
0
0
0
0
7.01493e-239
2.83102e-224
1.09857e-213
2.4926e-178
1.17943e-167
1.07763e-160
0
0
0
0
7.2074e-213
2.17982e-196
5.10154e-185
3.24263e-149
2.32015e-137
4.61135e-131
0
0
0
0
2.20522e-209
1.00394e-191
1.18651e-179
6.2463e-143
2.73489e-127
2.34118e-106
1
1
1
1
1
1
1
1
1
1
1
1
1
1
1
1
1
1
1
1
1
1
1
1
1
1
1
1
1
1
1
1
1
1
1
1
1
1
1
1
1
1
1
1
1
1
1
1
1
1
1
1
1
1
1
1
1
1
1
1
1
1
1
1
1
1
1
1
1
1
1
1
1
1
1
1
1
1
1
1
1
1
1
1
1
1
1
1
1
1
1
1
1
1
1
1
1
1
1
1
3.20811e-155
1.73251e-154
2.63788e-135
5.18756e-121
2.9653e-108
1.05066e-92
1.98664e-82
8.16643e-74
2.52405e-66
1.00591e-59
7.51478e-54
1.3033e-48
6.20363e-44
9.32687e-40
4.96695e-36
1.03187e-32
9.11177e-30
3.67548e-27
7.29074e-25
7.59677e-23
4.60605e-21
1.59859e-19
3.12521e-18
2.67621e-17
1.50158e-16
6.33188e-16
2.12662e-15
5.86496e-15
1.38489e-14
3.36461e-14
1.1364e-156
9.85959e-156
1.41023e-136
1.88347e-122
5.80441e-110
1.08655e-95
6.95279e-95
6.65116e-91
1.52516e-81
2.82563e-73
6.28596e-66
2.47016e-59
2.03457e-53
4.05942e-48
2.22688e-43
3.77003e-39
2.20603e-35
4.88144e-32
4.49885e-29
1.865e-26
3.9229e-24
4.12601e-22
2.0016e-20
2.91053e-19
2.5856e-18
1.67194e-17
8.50724e-17
3.54459e-16
1.28041e-15
4.4254e-15
5.79274e-158
7.08603e-157
1.07627e-137
1.20875e-123
3.00273e-111
4.32166e-97
4.41881e-96
3.45431e-92
2.3301e-83
8.62143e-81
4.46677e-73
5.46491e-66
1.43854e-59
9.16861e-54
1.70549e-48
9.87516e-44
1.93506e-39
1.36354e-35
3.75392e-32
4.29651e-29
2.29941e-26
5.56755e-24
5.2918e-22
1.09932e-20
1.36354e-19
1.22451e-18
8.62574e-18
4.94872e-17
2.43689e-16
1.03657e-15
3.2653e-159
5.2976e-158
9.0961e-139
8.84261e-125
1.84261e-112
2.173e-98
3.14137e-97
2.6536e-93
1.22225e-84
1.01001e-81
3.05667e-74
1.26526e-67
4.71828e-62
3.39732e-56
8.16324e-51
6.66914e-46
1.87056e-41
1.99074e-37
8.53853e-34
1.54937e-30
1.32041e-27
4.99214e-25
6.90319e-23
1.73187e-21
2.60356e-20
2.91635e-19
2.59883e-18
1.80774e-17
1.05348e-16
4.94326e-16
1.90469e-160
3.98029e-159
7.92371e-140
6.59954e-126
1.15044e-113
1.1156e-99
2.12685e-98
2.1354e-94
7.25286e-86
1.54401e-82
3.85281e-75
1.48091e-68
9.98092e-63
3.18273e-57
1.07446e-51
1.2344e-46
4.5452e-42
5.69336e-38
2.71327e-34
5.43249e-31
5.14673e-28
2.29013e-25
3.68399e-23
9.94017e-22
1.62739e-20
3.15381e-19
5.383e-18
3.30163e-17
1.34908e-16
5.00137e-16
1.16246e-161
3.03673e-160
7.06682e-141
4.94266e-127
7.14871e-115
5.69178e-101
1.38902e-99
1.81894e-95
4.7384e-87
4.10257e-83
-1.11266e-75
-7.53967e-68
-3.32787e-61
-2.62468e-55
-3.3775e-50
-1.05669e-45
-6.46924e-42
5.99387e-38
4.98765e-34
1.15715e-30
1.13489e-27
5.05922e-25
7.68357e-23
1.9685e-21
3.1526e-20
4.92578e-18
2.21558e-16
9.56499e-16
2.0226e-15
2.97687e-15
7.49512e-163
2.444e-161
6.95317e-142
3.99082e-128
4.76163e-116
3.12242e-102
1.04443e-100
2.98988e-96
-1.77698e-86
-5.37398e-78
-1.54153e-70
-1.30495e-63
-2.05695e-57
-6.93165e-52
-4.25819e-47
-7.77917e-43
-5.07799e-39
-9.3191e-36
-5.98301e-33
-1.27989e-30
5.04642e-28
1.77535e-24
3.75012e-22
1.03126e-20
1.69074e-19
4.94266e-16
2.55063e-14
2.76602e-14
2.67599e-14
2.81981e-14
3.98773e-160
1.41809e-159
6.34986e-134
3.02783e-123
3.91459e-114
-3.47842e-98
-1.75465e-90
-1.91471e-83
-3.06689e-75
-1.23904e-68
-9.87899e-63
-3.55569e-57
-4.60852e-52
-2.14236e-47
-2.897e-43
-1.6438e-39
-4.6132e-36
-4.53327e-33
-2.01868e-30
-4.7394e-28
-5.42944e-26
-2.21384e-24
-2.99009e-24
1.27882e-26
2.84127e-24
-1.82674e-12
-4.91657e-12
1.14138e-13
1.56265e-13
1.59574e-13
9.57399e-131
1.9018e-130
4.02037e-115
2.14627e-109
1.18211e-103
-2.69089e-91
-4.34147e-82
-4.83221e-76
-6.8628e-70
-3.14146e-64
-5.08122e-59
-4.26271e-54
-1.91067e-49
-4.25257e-45
-3.5001e-41
-1.44515e-37
-3.54886e-34
-3.0795e-31
-1.46589e-28
-5.07144e-26
-7.82501e-24
-1.4308e-21
-4.12525e-19
-4.85023e-10
-1.84054e-09
-3.94741e-09
-5.81883e-09
5.53998e-10
8.79489e-10
8.58576e-10
1.52567e-115
2.5895e-116
2.31929e-115
1.07314e-109
5.22368e-114
-8.94832e-89
-4.08204e-80
-2.25192e-74
-3.4922e-68
-1.06379e-62
-1.19904e-57
-7.4174e-53
-2.60987e-48
-4.91145e-44
-3.58817e-40
-1.40103e-36
-3.44779e-33
-2.92931e-30
-1.4231e-27
-5.3241e-25
-8.54277e-23
0.000435901
0.00201354
0.00487539
0.00895263
0.0143591
0.020344
0.0266047
0.0330973
0.0420492
0.995259
0.990024
0.984478
0.979105
0.973733
0.968271
0.96264
0.956711
0.950377
0.94379
0.937227
0.930491
0.92336
0.915866
0.908289
0.901193
0.894791
0.889225
0.884685
0.881176
0.880045
0.880926
0.882831
0.885584
0.889052
0.893287
0.897687
0.902025
0.90639
0.912094
1
1
1
1
1
1
1
1
1
1
1
1
1
1
1
1
1
1
1
1
1
1
1
1
1
1
1
1
1
1
1
1
1
1
1
1
1
1
1
1
1
1
1
1
1
1
1
1
1
1
1
1
1
1
1
1
1
1
1
0.999996
1
1
1
1
1
1
1
1
1
1
1
1
1
1
1
1
1
1
1
1
1
1
1
1
1
1
1
1
1
0.999997
1
1
1
1
1
1
1
1
1
1
1
1
1
1
1
1
1
1
1
1
1
1
1
1
1
1
1
1
1
1
1
1
1
1
1
1
1
1
1
1
1
1
1
1
1
1
1
1
1
1
1
1
1
1
1
1
1
1
1
0.999997
1
1
1
1
1
1
1
1
1
1
1
1
1
1
1
1
1
1
1
1
1
1
1
1
1
1
1
1
1
0.999984
1
1
1
1
1
1
1
1
1
1
1
1
1
1
1
1
1
1
1
1
1
1
1
1
1
1
1
1
1
0.99994
1
1
1
1
1
1
1
1
1
1
1
1
1
1
1
1
1
1
1
1
1
1
1
1
1
1
1
1
1
0.999574
1
1
1
1
1
1
1
1
1
1
1
1
1
1
1
1
1
1
1
1
1
1
1
1
1
1
1
1
1
0.99883
)
;

boundaryField
{
    walls
    {
        type            zeroGradient;
    }
    topInlet
    {
        type            fixedValue;
        value           uniform 1;
    }
    bottomInlet
    {
        type            fixedValue;
        value           uniform 0;
    }
    outlet
    {
        type            inletOutlet;
        inletValue      uniform 0;
        value           nonuniform List<scalar> 
20
(
3.36461e-14
4.4254e-15
1.03657e-15
4.94326e-16
5.00137e-16
2.97687e-15
2.81981e-14
1.59574e-13
8.58576e-10
0.0420492
0.912094
1
0.999996
0.999997
1
0.999997
0.999984
0.99994
0.999574
0.99883
)
;
    }
    frontBack
    {
        type            empty;
    }
}


// ************************************************************************* //
