/*--------------------------------*- C++ -*----------------------------------*\
| =========                 |                                                 |
| \\      /  F ield         | OpenFOAM: The Open Source CFD Toolbox           |
|  \\    /   O peration     | Version:  4.x                                   |
|   \\  /    A nd           | Web:      www.OpenFOAM.org                      |
|    \\/     M anipulation  |                                                 |
\*---------------------------------------------------------------------------*/
FoamFile
{
    version     2.0;
    format      ascii;
    class       volScalarField;
    location    "0.1";
    object      epsilon;
}
// * * * * * * * * * * * * * * * * * * * * * * * * * * * * * * * * * * * * * //

dimensions      [0 2 -3 0 0 0 0];

internalField   nonuniform List<scalar> 
800
(
3069.03
9326.76
16723.9
23561
28990.3
32829.5
35258
36489.4
36883.7
36789.8
183.929
571.168
1117.81
1719.87
2267.83
2726.04
3071.18
3365.9
3603.99
3785.64
24.7409
50.7725
92.3195
144.13
197.431
246.42
287.929
322.662
349.904
370.897
15.3125
17.0272
20.3335
25.176
31.0462
37.3224
43.4798
49.1737
54.0766
58.0991
14.843
15.0323
15.5025
16.2336
17.1698
18.238
19.367
20.496
21.5744
22.5869
18.4317
23.5935
28.5135
32.4679
35.346
37.2753
38.4442
39.0246
39.145
38.9326
153.615
244.113
270.448
262.667
242.279
219.636
198.663
180.342
164.393
149.398
6625.42
7180.53
6262.74
5410.9
4796.46
4353.74
4009.27
3713.9
3428.88
3038.36
256437
198129
136811
103098
84289.3
72468.4
63786.5
56478.7
49615
41188.1
3.28106e+06
1.86526e+06
1.11437e+06
783054
613176
509976
435084
372453
313924
248162
3.32501e+06
1.87464e+06
1.11662e+06
783936
613638
509910
434295
370884
311830
246760
262869
201629
138748
104435
85344.3
73324.2
64456.5
56966
49943.4
41465.7
6873.31
7421.11
6455.5
5569.34
4932.55
4473.59
4115.4
3807.19
3509.65
3106.71
160.544
253.441
278.748
269.122
247.161
223.42
201.734
182.957
166.712
151.502
18.6697
24.1131
29.2473
33.3312
36.2705
38.2142
39.3679
39.9148
39.9911
39.7304
14.8597
15.0773
15.5871
16.364
17.3478
18.4609
19.6294
20.7901
21.8924
22.9261
15.3561
17.1742
20.6355
25.6606
31.7179
38.1582
44.4483
50.2236
55.1486
59.2294
25.3225
52.6531
95.8813
149.329
204.095
254.125
296.559
331.817
359.467
381.37
193.004
598.731
1167.63
1789.06
2353.79
2821.6
3179.14
3486.88
3732.47
3917.44
3217.15
9767.6
17466.4
24534.3
30104
34007.4
36432.4
37622.2
37969.8
37836.7
36716.6
36262.6
35448.5
34356.3
33075.9
31685.8
30160.3
28644.1
27229.7
25953.1
24801.6
23731.4
22699.7
21675.9
20642.6
19593.6
18530.1
17459.1
16391
15338.5
14312.4
13323.5
12369.6
11517
10780.7
10142.5
9581.06
9080.15
8820.02
8057.74
4241.92
4533
4674.11
4674.53
4579.86
4420.19
4287.37
4170.57
4062.47
3955.31
3847.15
3739.74
3632.67
3524.54
3414.02
3300.45
3183.76
3064.03
2941.9
2818
2693.2
2568.43
2446.51
2335.92
2235.11
2143.95
2061.54
1986.68
1923.48
1872.47
464.127
546.687
610.714
651.65
670.913
672.597
663.988
650.244
633.888
622.701
619.703
622.401
628.646
636.892
646.438
656.774
667.669
678.876
690.134
701.041
711.134
719.913
727.468
733.238
736.654
738.051
737.537
734.383
729.015
750.518
71.3277
85.8387
99.9179
111.818
120.495
125.693
127.768
127.36
125.164
122.164
119.498
117.664
117.315
118.812
121.999
126.784
133.091
141.009
150.701
162.341
176.11
192.149
210.355
229.024
247.658
265.81
282.903
298.273
312.658
337.907
24.615
27.086
29.8159
32.5359
34.9863
36.9617
38.3275
39.0265
39.0683
38.5436
37.6176
36.4546
35.2297
34.1158
33.2532
32.7515
32.7849
33.4356
34.8054
37.0368
40.3315
44.9456
51.1517
58.6021
67.3327
77.3118
88.3811
100.291
113.408
131.047
38.1986
37.2639
36.1559
34.8958
33.5147
32.0417
30.4989
28.9054
27.2785
25.6363
24.0019
22.3969
20.8402
19.3499
17.9449
16.6451
15.4797
14.48
13.6855
13.1464
12.9331
13.171
13.989
15.385
17.4054
20.107
23.5585
27.8383
33.2116
40.5005
126.771
103.044
82.6862
66.4303
53.833
44.1719
36.7605
31.0412
26.5859
23.0705
20.2517
17.9457
16.0129
14.3491
12.8794
11.553
10.3395
9.22517
8.20972
7.30362
6.52693
5.91109
5.50163
5.33727
5.4124
5.73892
6.32953
7.21737
8.48458
10.3027
1628.04
827.032
434.633
240.505
140.724
87.0372
56.7746
38.9534
28.0266
21.0717
16.4868
13.3607
11.1554
9.54257
8.31635
7.34532
6.54515
5.86187
5.26243
4.72876
4.25484
3.84538
3.5193
3.30651
3.20499
3.21894
3.35861
3.6395
4.09496
4.78204
9567.89
2675.86
923.584
381.001
182.086
97.9538
57.9576
37.079
25.3394
18.3356
13.9518
11.0952
9.16465
7.81174
6.82537
6.07331
5.47106
4.96421
4.5188
4.11557
3.74702
3.41589
3.13831
2.94319
2.83237
2.81148
2.88997
3.08222
3.41482
3.92779
21234.4
3891.43
1097.75
412.434
188.349
98.8218
57.56
36.4257
24.6948
17.7631
13.4583
10.673
8.80396
7.50402
6.56383
5.8525
5.28623
4.81102
4.39301
4.01302
3.66346
3.3469
3.07916
2.88898
2.77902
2.75513
2.82681
3.00865
3.32671
3.81871
21133.2
3880.26
1095.6
411.779
188.075
98.6788
57.4714
36.3634
24.647
17.7244
13.4259
10.6452
8.77966
7.4826
6.54498
5.83611
5.27219
4.7992
4.38329
4.00528
3.6576
3.34283
3.07678
2.88816
2.77974
2.75737
2.83063
3.01445
3.33525
3.83093
9572.3
2668.89
919.884
379.263
181.196
97.4333
57.6115
36.8251
25.1398
18.1715
13.8132
10.9757
9.06007
7.71951
6.74423
6.00275
5.41059
4.91331
4.47687
4.08212
3.72159
3.39804
3.12759
2.93897
2.83455
2.81989
2.90484
3.10508
3.44874
3.97665
1654.62
835.929
437.277
241.001
140.509
86.6138
56.3181
38.5204
27.6315
20.7153
16.1669
13.0737
10.8974
9.31077
8.10954
7.16331
6.38754
5.72798
5.15122
4.6393
4.1862
3.79657
3.4892
3.29348
3.20861
3.2387
3.39506
3.6968
4.18138
4.9081
128.226
103.886
83.0931
66.5601
53.7953
44.0366
36.5701
30.8205
26.3486
22.8248
20.0029
17.6965
15.765
14.1045
12.641
11.3248
10.1261
9.03111
8.03897
7.15993
6.41367
5.83062
5.45548
5.3253
5.43537
5.79249
6.42695
7.37601
8.7281
10.6629
38.9457
37.951
36.7756
35.4425
33.9854
32.4363
30.8197
29.1558
27.4632
25.7636
24.0819
22.4394
20.8545
19.3446
17.9291
16.6315
15.4751
14.4875
13.7056
13.1807
12.9851
13.2391
14.0784
15.5067
17.582
20.3833
23.9744
28.451
34.096
41.7507
24.991
27.4984
30.2528
32.9765
35.4093
37.3479
38.66
39.2884
39.2521
38.666
37.6969
36.5094
35.293
34.2074
33.3993
33.0157
33.1288
33.8206
35.1987
37.4128
40.6745
45.2629
51.4702
58.9754
67.8432
78.0706
89.4916
101.868
115.572
133.951
72.741
87.4821
101.683
113.569
122.15
127.207
129.118
128.487
126.052
123.051
120.455
118.843
119.032
120.859
124.187
128.92
135.099
142.828
152.274
163.648
177.173
193.047
211.233
230.065
249.062
267.773
285.514
301.603
316.797
343.034
476.617
560.313
624.513
664.759
683.279
684.384
675.479
660.888
643.762
635.125
633.56
636.72
642.463
649.925
658.522
667.901
677.834
688.103
698.468
708.608
718.105
726.479
733.801
739.49
742.947
744.503
744.071
741.006
735.958
757.853
4372.77
4660.61
4794.81
4783.37
4682.03
4525.18
4395.86
4278.98
4169.08
4055.56
3942.14
3830
3718.69
3606.43
3492.23
3375.12
3254.6
3130.66
3003.81
2874.79
2744.42
2613.64
2485.39
2368.82
2262.58
2166.56
2079.8
2001.29
1935.69
1880.93
37757.1
37282.2
36435.5
35305.4
33983.5
32531.2
30950.6
29395.7
27956.9
26663.1
25495
24404.1
23348.9
22299.4
21237.5
20154.4
19050.5
17934
16817
15712.7
14632.4
13587.6
12578.1
11675.9
10897.1
10221.1
9629.33
9105.12
8825.95
8036.56
)
;

boundaryField
{
    walls
    {
        type            epsilonWallFunction;
        Cmu             0.09;
        kappa           0.41;
        E               9.8;
        value           nonuniform List<scalar> 
100
(
3.28106e+06
1.86526e+06
1.11437e+06
783054
613176
509976
435084
372453
313924
248162
3069.03
9326.76
16723.9
23561
28990.3
32829.5
35258
36489.4
36883.7
36789.8
36716.6
36262.6
35448.5
34356.3
33075.9
31685.8
30160.3
28644.1
27229.7
25953.1
24801.6
23731.4
22699.7
21675.9
20642.6
19593.6
18530.1
17459.1
16391
15338.5
14312.4
13323.5
12369.6
11517
10780.7
10142.5
9581.06
9080.15
8820.02
8057.74
37757.1
37282.2
36435.5
35305.4
33983.5
32531.2
30950.6
29395.7
27956.9
26663.1
25495
24404.1
23348.9
22299.4
21237.5
20154.4
19050.5
17934
16817
15712.7
14632.4
13587.6
12578.1
11675.9
10897.1
10221.1
9629.33
9105.12
8825.95
8036.56
3.32501e+06
1.87464e+06
1.11662e+06
783936
613638
509910
434295
370884
311830
246760
3217.15
9767.6
17466.4
24534.3
30104
34007.4
36432.4
37622.2
37969.8
37836.7
)
;
    }
    topInlet
    {
        type            fixedValue;
        value           uniform 14.855;
    }
    bottomInlet
    {
        type            fixedValue;
        value           uniform 14.855;
    }
    outlet
    {
        type            zeroGradient;
    }
    frontBack
    {
        type            empty;
    }
}


// ************************************************************************* //
