/*--------------------------------*- C++ -*----------------------------------*\
| =========                 |                                                 |
| \\      /  F ield         | OpenFOAM: The Open Source CFD Toolbox           |
|  \\    /   O peration     | Version:  4.x                                   |
|   \\  /    A nd           | Web:      www.OpenFOAM.org                      |
|    \\/     M anipulation  |                                                 |
\*---------------------------------------------------------------------------*/
FoamFile
{
    version     2.0;
    format      ascii;
    class       volScalarField;
    location    "0.1";
    object      nut;
}
// * * * * * * * * * * * * * * * * * * * * * * * * * * * * * * * * * * * * * //

dimensions      [0 2 -1 0 0 0 0];

internalField   nonuniform List<scalar> 
800
(
0.000802827
0.00116282
0.00141263
0.00158353
0.00169678
0.00176852
0.00181101
0.00183177
0.00183825
0.00183661
0.000205388
0.000201412
0.000243138
0.00029594
0.000349146
0.000399323
0.000444636
0.000486642
0.000525191
0.000559934
0.000545328
0.000305803
0.000203571
0.000161254
0.000144329
0.000138793
0.00013902
0.000142281
0.000147238
0.000153171
0.000819426
0.000731865
0.000611817
0.00049518
0.000402893
0.000335875
0.000288178
0.000253853
0.000228987
0.000210542
0.000842797
0.000816609
0.000775842
0.000724728
0.000669025
0.000613639
0.000561658
0.000514525
0.000472634
0.000435499
0.000673503
0.000506468
0.000398834
0.000330202
0.000283861
0.000250531
0.000225203
0.000205107
0.000188706
0.00017528
7.22892e-05
3.58928e-05
2.42278e-05
1.83262e-05
1.46561e-05
1.212e-05
1.02698e-05
8.89485e-06
7.89956e-06
7.28852e-06
9.00422e-06
1.27023e-05
1.54871e-05
1.72321e-05
1.8196e-05
1.86965e-05
1.89986e-05
1.92698e-05
1.95703e-05
1.94857e-05
9.80502e-05
0.000114662
0.0001107
0.000104227
9.89135e-05
9.49635e-05
9.18973e-05
8.93197e-05
8.70004e-05
8.24206e-05
0.000445032
0.00036865
0.000310473
0.00027601
0.000254392
0.000239224
0.000226878
0.000215413
0.000203471
0.000188128
0.000447011
0.000369266
0.000310682
0.000276113
0.000254455
0.000239213
0.000226741
0.00021511
0.000203018
0.000187773
9.93824e-05
0.000115849
0.000111625
0.000105007
9.96197e-05
9.56195e-05
9.25032e-05
8.98692e-05
8.74885e-05
8.28377e-05
9.14341e-06
1.29818e-05
1.58341e-05
1.76062e-05
1.85746e-05
1.90719e-05
1.9372e-05
1.96448e-05
1.9946e-05
1.98303e-05
6.88583e-05
3.41681e-05
2.30659e-05
1.74511e-05
1.39634e-05
1.15586e-05
9.81043e-06
8.51817e-06
7.59108e-06
7.03184e-06
0.000664821
0.000494998
0.00038784
0.000320287
0.000274939
0.000242413
0.000217722
0.000198138
0.000182159
0.000169091
0.000842151
0.000814443
0.000771784
0.000718905
0.000661876
0.000605683
0.000553336
0.000506162
0.00046442
0.000427467
0.000817491
0.00072626
0.000603677
0.000486665
0.000395159
0.000329241
0.000282542
0.000249083
0.00022494
0.000206904
0.000534654
0.000297498
0.000198777
0.000158464
0.000142607
0.000137751
0.000138431
0.000142016
0.000147234
0.000153445
0.000202682
0.000202074
0.000245581
0.000299548
0.000353696
0.000404515
0.000450573
0.000493375
0.000532571
0.000567701
0.00081554
0.00118086
0.00143323
0.00160504
0.00171824
0.00178942
0.0018309
0.00185053
0.00185612
0.00185387
0.00183552
0.00182792
0.00181414
0.00179532
0.00177273
0.00174754
0.00171903
0.00168973
0.00166145
0.00163506
0.00161052
0.00158701
0.00156367
0.0015398
0.00151493
0.00148882
0.00146139
0.00143267
0.00140284
0.00137214
0.00134084
0.00130922
0.0012772
0.00124715
0.00121998
0.00119545
0.001173
0.00115197
0.00114062
0.00110698
0.000591896
0.000626085
0.000659479
0.000689862
0.000716581
0.000739392
0.000759781
0.000777952
0.000793902
0.000806432
0.000815141
0.000820877
0.00082453
0.000826861
0.000828499
0.000829932
0.000831514
0.000833408
0.000835704
0.000838361
0.000841325
0.000844515
0.000848628
0.00085344
0.000857824
0.000861861
0.000865565
0.000868428
0.00086458
0.000891974
0.000163115
0.000176474
0.000192032
0.000208762
0.000226
0.000243391
0.000260641
0.000277684
0.000294434
0.000311715
0.000330033
0.000349357
0.000369517
0.000390421
0.000412334
0.000435581
0.00046059
0.000487745
0.000517393
0.000549741
0.000584897
0.000622885
0.000663702
0.000704259
0.000743893
0.000782376
0.000819097
0.000852757
0.00088238
0.000945296
0.000183179
0.000163565
0.000150713
0.000143083
0.00013917
0.000137865
0.000138397
0.000140266
0.00014316
0.000146884
0.000151434
0.000156867
0.000163464
0.000171616
0.000181677
0.000194094
0.000209327
0.000228036
0.000251032
0.000279235
0.000313682
0.000355467
0.000405027
0.000458283
0.000514597
0.000573178
0.000632782
0.000692147
0.000753072
0.000836053
0.000392944
0.000350865
0.00031229
0.000278971
0.000251124
0.000228157
0.000209232
0.000193536
0.000180397
0.00016925
0.000159643
0.000151324
0.00014415
0.000138088
0.000133231
0.000129788
0.000128112
0.000128696
0.000132164
0.00013932
0.000151235
0.000169271
0.00019484
0.000226638
0.00026501
0.000310076
0.000361525
0.000418915
0.000484067
0.000565683
0.000171408
0.000168173
0.000165055
0.000161813
0.000158359
0.000154657
0.000150714
0.000146564
0.000142264
0.000137876
0.000133472
0.000129112
0.000124844
0.000120698
0.000116694
0.000112853
0.000109204
0.000105826
0.000102894
0.00010074
9.99256e-05
0.000101392
0.000106378
0.000115334
0.000128893
0.000147674
0.000172357
0.000203761
0.000243771
0.000295916
7.97784e-06
8.99869e-06
1.02533e-05
1.17356e-05
1.34748e-05
1.54989e-05
1.78398e-05
2.05321e-05
2.36026e-05
2.70664e-05
3.0926e-05
3.51527e-05
3.96776e-05
4.43943e-05
4.91658e-05
5.3832e-05
5.82236e-05
6.21726e-05
6.55343e-05
6.82112e-05
7.01966e-05
7.16352e-05
7.28962e-05
7.44798e-05
7.70602e-05
8.13794e-05
8.8171e-05
9.82766e-05
0.000112855
0.000133314
1.68963e-05
1.44117e-05
1.25638e-05
1.13016e-05
1.05375e-05
1.01995e-05
1.02454e-05
1.06626e-05
1.14601e-05
1.26621e-05
1.43029e-05
1.64167e-05
1.90268e-05
2.21354e-05
2.57171e-05
2.97145e-05
3.40379e-05
3.85631e-05
4.3137e-05
4.75865e-05
5.17422e-05
5.54732e-05
5.87028e-05
6.13805e-05
6.3864e-05
6.66056e-05
7.0172e-05
7.52432e-05
8.26607e-05
9.32696e-05
3.93826e-05
2.2498e-05
1.53311e-05
1.19336e-05
1.02088e-05
9.33261e-06
8.96885e-06
8.98622e-06
9.34811e-06
1.00668e-05
1.11823e-05
1.27487e-05
1.48205e-05
1.74395e-05
2.06224e-05
2.43506e-05
2.8563e-05
3.31518e-05
3.7964e-05
4.28107e-05
4.74884e-05
5.18132e-05
5.56252e-05
5.87552e-05
6.1501e-05
6.42555e-05
6.75238e-05
7.19396e-05
7.82809e-05
8.73018e-05
4.55288e-05
2.23078e-05
1.49521e-05
1.17129e-05
1.00343e-05
9.14003e-06
8.7347e-06
8.699e-06
8.99787e-06
9.6437e-06
1.06778e-05
1.21571e-05
1.4141e-05
1.66778e-05
1.97919e-05
2.34718e-05
2.76616e-05
3.2256e-05
3.71021e-05
4.20086e-05
4.67665e-05
5.11838e-05
5.50885e-05
5.8294e-05
6.10906e-05
6.38631e-05
6.71082e-05
7.14544e-05
7.76716e-05
8.64982e-05
4.54846e-05
2.23e-05
1.49461e-05
1.17076e-05
1.00289e-05
9.13366e-06
8.72632e-06
8.68783e-06
8.98317e-06
9.6248e-06
1.06541e-05
1.21278e-05
1.41052e-05
1.66349e-05
1.9742e-05
2.34157e-05
2.76003e-05
3.21906e-05
3.70336e-05
4.19381e-05
4.66949e-05
5.11117e-05
5.50165e-05
5.82231e-05
6.10226e-05
6.38004e-05
6.70541e-05
7.14139e-05
7.76522e-05
8.65058e-05
3.9381e-05
2.2458e-05
1.53006e-05
1.1911e-05
1.01865e-05
9.30487e-06
8.9316e-06
8.93628e-06
9.2824e-06
9.98245e-06
1.10767e-05
1.26185e-05
1.46623e-05
1.72509e-05
2.04038e-05
2.41055e-05
2.82961e-05
3.2868e-05
3.76678e-05
4.25069e-05
4.71811e-05
5.15054e-05
5.53197e-05
5.84561e-05
6.12157e-05
6.39938e-05
6.7298e-05
7.17704e-05
7.81981e-05
8.73341e-05
1.71193e-05
1.45373e-05
1.26229e-05
1.13129e-05
1.05104e-05
1.01377e-05
1.01481e-05
1.05253e-05
1.12761e-05
1.24242e-05
1.4004e-05
1.60488e-05
1.85815e-05
2.16078e-05
2.5109e-05
2.90352e-05
3.32994e-05
3.77786e-05
4.23188e-05
4.6748e-05
5.08958e-05
5.46299e-05
5.78742e-05
6.05814e-05
6.31166e-05
6.59379e-05
6.96139e-05
7.4846e-05
8.25008e-05
9.3428e-05
7.7178e-06
8.72148e-06
9.9488e-06
1.13946e-05
1.3088e-05
1.50565e-05
1.73312e-05
1.99447e-05
2.29239e-05
2.62885e-05
3.00434e-05
3.41574e-05
3.85613e-05
4.31531e-05
4.78025e-05
5.23553e-05
5.66421e-05
6.04955e-05
6.37721e-05
6.63811e-05
6.8325e-05
6.97611e-05
7.10751e-05
7.27733e-05
7.55312e-05
8.00601e-05
8.71603e-05
9.77048e-05
0.000112891
0.00013415
0.000165389
0.000162328
0.000159392
0.000156343
0.000153094
0.000149613
0.000145902
0.000141996
0.000137946
0.000133817
0.000129674
0.000125571
0.000121544
0.000117618
0.000113806
0.00011012
0.000106595
0.000103318
0.000100472
9.83976e-05
9.76677e-05
9.9214e-05
0.000104275
0.00011331
0.000127002
0.000146103
0.000171275
0.000203441
0.00024457
0.000298185
0.000385455
0.000344059
0.000306253
0.000273697
0.000246531
0.000224136
0.000205682
0.00019038
0.000177558
0.000166628
0.000157172
0.000148954
0.000141835
0.000135807
0.000130981
0.00012759
0.000125989
0.000126629
0.000130088
0.000137137
0.000148823
0.000166538
0.000191744
0.000223263
0.000261563
0.000306907
0.000359021
0.000417548
0.00048433
0.000567983
0.000180228
0.000161235
0.00014889
0.000141647
0.00013801
0.000136892
0.00013754
0.000139465
0.000142357
0.00014604
0.000150517
0.000155895
0.000162534
0.000170673
0.000180616
0.00019272
0.000207509
0.000225637
0.000247905
0.000275261
0.000308802
0.000349727
0.000398628
0.000451614
0.000508131
0.000567452
0.000628215
0.000689159
0.00075206
0.000837389
0.000163751
0.000177404
0.000193168
0.000210018
0.000227327
0.000244709
0.000261905
0.000278766
0.000295283
0.000312685
0.000330995
0.000350067
0.000369564
0.000389654
0.000410638
0.000432914
0.000456929
0.000483112
0.000511838
0.000543389
0.000577947
0.000615616
0.000656444
0.000697345
0.000737633
0.000777096
0.00081494
0.000849896
0.000881113
0.000945932
0.000599705
0.00063377
0.000666884
0.000696788
0.000723067
0.00074564
0.000765846
0.00078378
0.000799381
0.000810679
0.000818265
0.000823008
0.000825824
0.000827425
0.000828529
0.000829605
0.00083095
0.000832687
0.000834855
0.000837418
0.000840326
0.000843504
0.000847635
0.000852494
0.00085697
0.000861217
0.000865105
0.000868171
0.00086486
0.000892783
0.0018527
0.0018449
0.00183083
0.0018117
0.0017888
0.00176294
0.00173392
0.00170438
0.00167611
0.00164984
0.00162539
0.00160187
0.00157844
0.00155442
0.00152935
0.00150289
0.00147494
0.00144554
0.00141489
0.00138321
0.00135076
0.00131781
0.00128433
0.00125286
0.00122436
0.00119854
0.00117496
0.00115302
0.00114089
0.00110601
)
;

boundaryField
{
    walls
    {
        type            nutkWallFunction;
        Cmu             0.09;
        kappa           0.41;
        E               9.8;
        value           uniform 0;
    }
    topInlet
    {
        type            calculated;
        value           uniform 0.000851986;
    }
    bottomInlet
    {
        type            calculated;
        value           uniform 0.000851986;
    }
    outlet
    {
        type            calculated;
        value           nonuniform List<scalar> 
20
(
0.00110698
0.000891974
0.000945296
0.000836053
0.000565683
0.000295916
0.000133314
9.32696e-05
8.73018e-05
8.64982e-05
8.65058e-05
8.73341e-05
9.3428e-05
0.00013415
0.000298185
0.000567983
0.000837389
0.000945932
0.000892783
0.00110601
)
;
    }
    frontBack
    {
        type            empty;
    }
}


// ************************************************************************* //
