/*--------------------------------*- C++ -*----------------------------------*\
| =========                 |                                                 |
| \\      /  F ield         | OpenFOAM: The Open Source CFD Toolbox           |
|  \\    /   O peration     | Version:  4.x                                   |
|   \\  /    A nd           | Web:      www.OpenFOAM.org                      |
|    \\/     M anipulation  |                                                 |
\*---------------------------------------------------------------------------*/
FoamFile
{
    version     2.0;
    format      ascii;
    class       volScalarField;
    location    "0.1";
    object      p_rgh;
}
// * * * * * * * * * * * * * * * * * * * * * * * * * * * * * * * * * * * * * //

dimensions      [1 -1 -2 0 0 0 0];

internalField   nonuniform List<scalar> 
800
(
3316.63
3168.71
3182.09
3464.21
3825.62
4071
4257.98
4392.71
4462.8
4260.44
4073.55
3866.08
2316.44
1398.17
848.305
514.638
175.234
-130.332
-306.291
-387.734
4793.09
5025.22
3214.33
2433.65
2420.07
2569.66
2651.73
2672.13
2612.47
2512.17
5823.42
6297.44
4091.87
3042.2
2848.79
2693.22
2369.35
1968.25
1603.15
1486.71
6962
7542.24
4878.51
3624.55
3394.65
3229.67
2941.43
2647.09
2440.16
2443.23
8203.75
8805.87
5649.45
4217.79
3909.11
3675.35
3338.82
2970
2593.17
2392.7
9758.56
9982.4
6667.01
5174.33
4597.65
4107.59
3617.66
3124.8
2513.12
1851.41
12029.4
9438.19
6979.52
5961.07
5347.94
4832.42
4334.69
3762.11
2780.28
644.943
17322.1
10841.1
7984.74
6455.48
5549.55
4961.02
4486.91
3976.02
3016.62
-32.0247
11840.4
7064.97
4999.36
3927.01
3327.06
2952.35
2659.58
2355.03
1834.57
-75.8184
11993.4
7120.15
5022.87
3940.22
3338.09
2961.5
2664.37
2351.65
1817.59
-107.881
17642.3
10984.4
8055.75
6500.41
5586.4
4991.58
4507.79
3981.03
2996.23
-78.9072
12261.7
9597.52
7073.07
6024.63
5398.33
4871.31
4360.65
3770.51
2762.86
603.499
9935.69
10130
6732.81
5209.1
4623.25
4127.68
3631.56
3129.36
2504.83
1832.5
8346.34
8942.74
5719.74
4260.25
3947.07
3711.43
3368.41
2987.85
2594.62
2382.11
7083.29
7663.83
4943.87
3663.23
3428.54
3261.14
2967.77
2669.4
2464.77
2469.07
5928.84
6403.44
4150.58
3079.14
2880.73
2714.46
2369.93
1943.95
1565.7
1481.23
4887.31
5113.58
3262.1
2475.78
2482.46
2641.84
2722.13
2720.08
2660.27
2531.78
4168.15
3935.26
2319.63
1365.22
830.341
492.723
149.959
-139.752
-323.079
-420.486
3422.23
3296.67
3310.39
3598.71
3944.08
4185.23
4368.43
4503.46
4572.67
4376.25
2009.28
2004.21
2338.11
2646.05
2852.38
2977.19
3052.85
3111.03
3156.96
3178.99
3163.33
3123.87
3069.36
3002.88
2926.35
2842.79
2751.79
2657.13
2559.58
2461.5
2363.08
2267.51
2153.95
2045.43
1968.72
1903.51
1837.37
1732.92
1853.38
1123.16
-531.921
-150.537
85.7024
45.1725
-18.0412
-78.3971
-172.575
-286.616
-351.766
-426.245
-476.282
-491.588
-491.853
-469.307
-433.844
-400.609
-364.031
-326.156
-291.59
-257.152
-226.416
-201.521
-184.817
-167.247
-148.02
-136.127
-125.824
-112.216
-136.771
-195.778
2029.07
2042.62
2133.42
2138.27
2099.35
2040.63
1954.5
1827.81
1655.65
1549.54
1433.29
1345.23
1275.02
1204.13
1140
1093.11
1038.33
989.219
943.814
897.147
852.6
811.662
763.944
723.901
698.161
673.665
648.826
610.305
655.295
341.597
1826.42
2142.86
2392.63
2433.2
2255.67
1956.3
1603.64
1226.02
864.578
585.064
452.295
361.773
308.509
286.081
282.377
292.228
319.347
339.43
352.7
374.371
388.535
395.22
388.556
386.009
393.783
394.451
390.434
378.269
388.555
73.382
2892.98
3397.52
3729.04
3676.53
3307.56
2829.5
2361.84
1939.67
1589.16
1343.07
1188.63
1070.92
967.739
883.641
826.805
789.775
759.672
728.295
696.33
654.234
621.678
592.324
551.38
522.147
508.113
490.544
471.621
445.843
457.793
128.101
3319.37
4251.43
4752.62
4560.01
3959.18
3286.7
2659.41
2094.09
1608.16
1226.41
958.155
773.563
646.742
567.524
525.6
506.63
501.865
496.841
490.945
487.789
485.946
480.173
466.565
455.99
457.141
455.043
446.673
428.961
435.43
91.0202
3950.43
5856.91
6563.7
5988.34
4990.15
4042.41
3211.96
2496.66
1913.57
1479.1
1187.11
995.853
864.969
776.136
720.808
688.09
666.649
645.412
623.265
598.759
577.102
555.521
525.169
502.972
491.149
473.047
454.967
432.38
434.146
94.3848
3178
6807.19
7713.8
6717.23
5431.55
4312.56
3366.93
2578.89
1953.12
1491.54
1177.62
967.535
821.576
722.164
660.679
625.28
604.011
585.448
567.518
549.782
535.584
520.583
496.765
478.784
470.93
461.158
450.727
430.392
432.642
92.2588
2319.74
7173.71
8069.03
6933.96
5578.92
4411.85
3432.13
2622.43
1983.07
1512.53
1192.24
977.848
829.616
729.379
667.713
632.284
610.789
591.925
573.603
555.384
540.541
524.971
500.699
482.729
475.246
463.563
451.504
430.571
432.815
91.9444
2076.44
7368.9
8171.05
6986.96
5613.15
4433.6
3445.96
2631.63
1989.51
1517.3
1195.9
980.743
832.142
731.813
670.127
634.649
612.985
593.928
575.397
556.958
541.862
526.044
501.511
483.289
475.487
463.933
451.694
430.649
432.921
91.8835
2069.01
7366.29
8169.25
6985.79
5612.38
4433.06
3445.55
2631.3
1989.26
1517.18
1195.84
980.639
832.037
731.779
670.179
634.767
613.103
594.039
575.492
557.048
541.929
526.077
501.5
483.23
475.353
463.915
451.683
430.654
432.935
91.8506
2301.17
7167.86
8065.77
6932.1
5577.83
4411.17
3431.62
2621.93
1982.72
1512.58
1192.37
977.651
829.282
729.238
667.871
632.701
611.221
592.363
574.022
555.818
540.911
525.228
500.79
482.661
474.905
463.604
451.451
430.562
432.846
91.7608
3154.92
6802.58
7714.63
6719.03
5433.45
4314.32
3368.27
2579.65
1953.86
1493.08
1179.03
967.556
820.573
721.026
659.845
624.895
603.7
585.413
567.834
550.676
536.851
522.088
498.336
480.829
473.662
462.735
450.77
430.303
432.658
91.6669
3951.43
5876.49
6587.28
6007.93
5005.78
4055.17
3221.78
2503.83
1920.88
1490.06
1200.41
1008.76
877.393
788.735
733.427
699.534
674.941
650.806
625.953
600.297
577.867
555.393
524.652
500.999
489.261
474.478
457.147
433.782
435.104
95.2241
3314.94
4257.62
4764.15
4572
3971.18
3297.63
2666.3
2094.67
1604.29
1221.18
948.793
760.872
637.511
563.53
526.117
511.914
508.73
504.556
499.541
495.324
492.18
485.563
469.369
460.358
459.372
452.876
447.375
429.827
435.519
88.175
2903.55
3409.32
3745.19
3696.18
3331.08
2854.74
2385.92
1963.64
1622.93
1388.73
1229.91
1095.16
980.569
897.858
843.297
803.94
767.976
733.682
697.667
659.185
627.647
597.617
557.693
526.263
510.858
492.535
474.218
447.607
459.018
127.854
1839.92
2155.87
2404.29
2445.91
2270.03
1964.12
1597.11
1203.21
841.047
588.309
454.725
370.853
325.017
299.947
298.217
314.612
336.725
352.852
368.9
386.45
397.373
402.344
394.038
390.676
397.165
395.814
392.744
380.502
390.385
71.8164
2051.21
2071.54
2170.22
2191.03
2172.66
2112.26
2015.93
1861.35
1701.4
1580.09
1462.86
1372.61
1296.24
1212.78
1157.3
1103.87
1050.12
1001.86
954.772
907.417
862.192
819.742
770.407
728.17
700.41
673.469
647.285
607.842
651.447
335.674
-574.269
-198.563
26.7029
-13.3017
-23.541
-81.5264
-186.296
-282.019
-355.035
-434.959
-471.289
-485.747
-483.218
-448.931
-420.288
-387.656
-350.464
-313.512
-278.478
-245.054
-215.289
-190.75
-174.087
-156.396
-137.188
-125.357
-114.004
-100.527
-123.839
-186.135
2164.53
2156.72
2485.18
2793.4
2966.25
3079.39
3151.23
3211.41
3254.71
3270.5
3246
3203
3144.61
3074.73
2993.05
2902.23
2804.68
2703.42
2599.69
2494.74
2388.86
2285.24
2163.69
2047.83
1964.59
1891.57
1820.54
1714.05
1829.83
1094.76
)
;

boundaryField
{
    walls
    {
        type            fixedValue;
        value           uniform 0;
    }
    topInlet
    {
        type            fixedValue;
        value           uniform 0;
    }
    bottomInlet
    {
        type            fixedValue;
        value           uniform 0;
    }
    outlet
    {
        type            fixedValue;
        value           uniform 0;
    }
    frontBack
    {
        type            empty;
    }
}


// ************************************************************************* //
