/*--------------------------------*- C++ -*----------------------------------*\
| =========                 |                                                 |
| \\      /  F ield         | OpenFOAM: The Open Source CFD Toolbox           |
|  \\    /   O peration     | Version:  4.x                                   |
|   \\  /    A nd           | Web:      www.OpenFOAM.org                      |
|    \\/     M anipulation  |                                                 |
\*---------------------------------------------------------------------------*/
FoamFile
{
    version     2.0;
    format      ascii;
    class       volScalarField;
    location    "0.35";
    object      alpha.upper;
}
// * * * * * * * * * * * * * * * * * * * * * * * * * * * * * * * * * * * * * //

dimensions      [0 0 0 0 0 0 0];

internalField   nonuniform List<scalar> 
800
(
0
0
0
0
1.15611e-321
1.16599e-321
1.17588e-321
1.18576e-321
1.18576e-321
1.19564e-321
0
0
0
0
1.10671e-321
1.10671e-321
1.10671e-321
1.11659e-321
1.11659e-321
1.12647e-321
0
0
0
0
1.09683e-321
1.09683e-321
1.09683e-321
1.10671e-321
1.10671e-321
1.10671e-321
0
0
0
0
1.08694e-321
1.08694e-321
1.09683e-321
1.09683e-321
1.09683e-321
1.09683e-321
0
0
0
0
1.08694e-321
1.08694e-321
1.08694e-321
1.09683e-321
1.09683e-321
1.09683e-321
0
0
0
0
1.08694e-321
1.08694e-321
1.08694e-321
1.09683e-321
1.09683e-321
1.09683e-321
0
0
0
0
9.68369e-322
9.7825e-322
9.7825e-322
9.88131e-322
9.88131e-322
9.88131e-322
0
0
0
0
2.19365e-321
2.23318e-321
2.2727e-321
2.30235e-321
2.33199e-321
2.33199e-321
0
0
0
0
1.04347e-320
1.06521e-320
1.08497e-320
1.10473e-320
1.64989e-302
4.84528e-300
0
0
0
0
2.2648e-320
2.32408e-320
2.37349e-320
6.3527e-308
3.03681e-263
9.5634e-201
1
1
1
1
1
1
1
1
1
1
1
1
1
1
1
1
1
1
1
1
1
1
1
1
1
1
1
1
1
1
1
1
1
1
1
1
1
1
1
1
1
1
1
1
1
1
1
1
1
1
1
1
1
1
1
1
1
1
1
1
1
1
1
1
1
1
1
1
1
1
1
1
1
1
1
1
1
1
1
1
1
1
1
1
1
1
1
1
1
1
1
1
1
1
1
1
1
1
1
1
1.54148e-321
1.45255e-321
1.36362e-321
1.26481e-321
1.17588e-321
2.69048e-302
3.88161e-269
2.7164e-240
7.93801e-215
3.79783e-192
9.1345e-172
2.01312e-153
6.44842e-137
4.45428e-122
9.23075e-109
7.60272e-97
3.28226e-86
9.25209e-77
2.15712e-68
5.15964e-61
1.6538e-54
8.24225e-49
3.71075e-44
1.15767e-41
1.46214e-39
1.04993e-37
1.22453e-22
1.30017e-21
6.54156e-21
1.22242e-20
1.40315e-321
1.3241e-321
1.24505e-321
1.16599e-321
1.08694e-321
2.78238e-305
1.78043e-304
4.15147e-303
4.34759e-276
5.25633e-247
5.13089e-221
1.5954e-197
2.4191e-176
2.68875e-157
3.29582e-140
6.63854e-125
3.21469e-111
5.06799e-99
3.59808e-88
1.50871e-78
5.18957e-70
1.77593e-62
2.03144e-56
1.09252e-53
2.37766e-51
3.01009e-49
6.38894e-22
6.21566e-21
2.75221e-20
4.90939e-20
1.36362e-321
1.28457e-321
1.20552e-321
1.12647e-321
1.04742e-321
1.10667e-306
1.13154e-305
2.35263e-304
6.64213e-278
3.94347e-276
7.93443e-251
1.61009e-225
1.52742e-202
9.51136e-182
8.30747e-163
1.27699e-145
4.55587e-130
4.65202e-116
1.78431e-103
3.24163e-92
3.81552e-82
3.41334e-73
4.76096e-66
3.41172e-63
1.04093e-60
1.91486e-58
5.93574e-21
5.13787e-20
2.00777e-19
3.50161e-19
1.36362e-321
1.28457e-321
1.20552e-321
1.12647e-321
1.04742e-321
5.56449e-308
8.04422e-307
1.88027e-305
3.48412e-279
4.01734e-277
5.20889e-252
3.24034e-227
1.74679e-213
1.62112e-192
2.77076e-173
1.09061e-155
9.11759e-140
2.73471e-125
3.79959e-112
2.92963e-100
1.63929e-89
7.36366e-80
3.65418e-72
2.38347e-69
7.3227e-67
1.723e-64
9.43348e-20
6.99742e-19
2.37178e-18
4.01957e-18
1.36362e-321
1.28457e-321
1.20552e-321
1.12647e-321
1.04742e-321
2.85676e-309
5.44631e-308
1.50867e-306
2.06746e-280
4.66545e-278
5.23513e-253
2.29951e-228
4.0175e-214
2.33011e-193
1.93593e-174
4.84691e-158
8.88209e-143
2.70735e-128
3.76022e-115
3.11634e-103
2.06255e-92
1.46721e-82
8.29395e-75
3.45159e-72
7.40842e-70
4.03829e-67
2.79293e-18
1.66614e-17
4.73203e-17
7.70334e-17
1.36362e-321
1.28457e-321
1.20552e-321
1.12647e-321
1.04742e-321
1.45752e-310
3.55692e-309
1.22237e-307
1.3506e-281
6.76415e-279
7.61861e-254
2.625e-229
-3.06074e-213
-2.55571e-192
-1.45839e-173
-1.19428e-156
-1.05616e-141
2.73425e-127
3.60789e-114
1.95602e-102
7.25573e-92
2.01197e-82
5.26037e-75
1.30239e-72
2.23162e-70
1.82385e-67
1.94451e-16
8.3288e-16
1.86989e-15
2.72461e-15
1.24505e-321
1.16599e-321
1.08694e-321
1.02766e-321
9.48606e-322
7.99571e-312
2.6745e-310
1.39274e-308
1.44742e-282
-2.77058e-272
-4.21486e-246
-3.78842e-222
-1.70323e-200
-5.86246e-181
-1.72904e-163
-9.27321e-148
-1.38531e-133
-5.82443e-121
-1.06747e-109
-9.07357e-100
4.62343e-90
2.33655e-80
3.195e-73
5.0825e-71
4.09722e-69
9.35925e-67
2.51737e-14
2.75935e-14
2.69746e-14
2.77237e-14
3.00392e-321
2.78653e-321
2.57902e-321
2.3814e-321
2.19365e-321
2.69833e-312
2.24134e-310
-1.48936e-287
-1.22087e-262
-2.01279e-240
-5.41903e-220
-5.87499e-201
-2.34413e-183
-3.95043e-167
-2.57546e-152
-1.0473e-138
-3.4286e-126
-7.23976e-115
-1.43183e-104
-3.50581e-95
-1.1035e-86
-2.70904e-79
5.60395e-73
5.60629e-73
6.14743e-73
-1.74401e-12
-4.65192e-12
1.10905e-13
1.53223e-13
1.68075e-13
1.00228e-299
1.98422e-299
4.45155e-299
1.1296e-298
3.32782e-298
1.18801e-297
-1.06803e-288
-2.19264e-268
-3.07848e-248
-4.95248e-229
-7.09123e-211
-1.05225e-193
-1.57209e-177
-2.25067e-162
-2.36862e-148
-2.56033e-135
-3.37254e-123
-3.47138e-112
-4.63443e-102
-1.18044e-92
-3.9198e-84
-4.46655e-76
-3.57739e-69
-4.84744e-10
-1.83789e-09
-3.92632e-09
-5.87135e-09
5.30774e-10
8.5939e-10
9.31931e-10
6.23216e-210
1.05778e-210
2.0488e-211
4.23939e-212
8.792e-213
1.77652e-213
3.42713e-214
6.20465e-215
1.06155e-215
1.76486e-216
-8.51532e-208
-3.77801e-191
-2.18294e-175
-1.55281e-160
-9.95887e-147
-7.85189e-134
-8.42352e-122
-7.2985e-111
-8.84364e-101
-2.28652e-91
-7.77142e-83
0.000435895
0.00201342
0.00487445
0.0089557
0.0143786
0.0203006
0.026643
0.0326461
0.0426612
0.995259
0.990024
0.984478
0.979105
0.973733
0.968271
0.96264
0.956711
0.950377
0.94379
0.937227
0.930491
0.92336
0.915866
0.908289
0.901193
0.894791
0.889225
0.884685
0.881176
0.880045
0.880926
0.882831
0.885584
0.889054
0.893301
0.897647
0.902076
0.906099
0.912499
1
1
1
1
1
1
1
1
1
1
1
1
1
1
1
1
1
1
1
1
1
1
1
1
1
1
1
1
1
1
1
1
1
1
1
1
1
1
1
1
1
1
1
1
1
1
1
1
1
1
1
1
1
1
1
1
1
1
1
1
1
1
1
1
1
1
1
1
1
1
1
1
1
1
1
1
1
1
1
1
1
1
1
1
1
1
1
1
1
1
1
1
1
1
1
1
1
1
1
1
1
1
1
1
1
1
1
1
1
1
1
1
1
1
1
1
1
1
1
1
1
1
1
1
1
1
1
1
1
1
1
1
1
1
1
1
1
1
1
1
1
1
1
1
1
1
1
1
1
1
1
1
1
1
1
1
1
1
1
1
1
1
1
1
1
1
1
1
1
1
1
1
1
1
1
1
1
1
1
1
1
1
1
1
1
1
1
1
1
1
1
1
1
1
1
1
1
1
1
1
1
1
1
1
1
1
1
1
1
1
1
1
1
1
1
1
1
1
1
1
1
1
1
1
1
1
1
1
1
1
1
1
1
1
1
1
1
1
1
1
1
1
1
1
1
1
1
1
1
1
1
1
1
1
1
1
1
1
1
1
1
1
1
1
1
1
1
1
1
1
)
;

boundaryField
{
    walls
    {
        type            zeroGradient;
    }
    topInlet
    {
        type            fixedValue;
        value           uniform 1;
    }
    bottomInlet
    {
        type            fixedValue;
        value           uniform 0;
    }
    outlet
    {
        type            inletOutlet;
        inletValue      uniform 0;
        value           nonuniform List<scalar> 
20
(
1.22242e-20
4.90939e-20
3.50161e-19
4.01957e-18
7.70334e-17
2.72461e-15
2.77237e-14
1.68075e-13
9.31931e-10
0.0426612
0.912499
1
1
1
1
1
1
1
1
1
)
;
    }
    frontBack
    {
        type            empty;
    }
}


// ************************************************************************* //
