/*--------------------------------*- C++ -*----------------------------------*\
| =========                 |                                                 |
| \\      /  F ield         | OpenFOAM: The Open Source CFD Toolbox           |
|  \\    /   O peration     | Version:  4.x                                   |
|   \\  /    A nd           | Web:      www.OpenFOAM.org                      |
|    \\/     M anipulation  |                                                 |
\*---------------------------------------------------------------------------*/
FoamFile
{
    version     2.0;
    format      ascii;
    class       surfaceScalarField;
    location    "0.35";
    object      alphaPhi;
}
// * * * * * * * * * * * * * * * * * * * * * * * * * * * * * * * * * * * * * //

dimensions      [0 3 -1 0 0 0 0];

internalField   nonuniform List<scalar> 
1530
(
0
0
0
0
0
0
0
0
0
0
0
0
0
0
0
0
0
0
0
0
0
0
0
0
0
0
0
0
0
0
0
0
0
0
0
0
0
0
0
0
0
0
0
0
0
0
0
0
0
0
0
0
0
0
0
0
0
0
0
0
0
0
0
0
0
0
0
0
0
0
0
0
0
0
0
0
0
0
0
0
0
0
0
0
0
0
0
0
0
0
0
0
0
0
0
0
0
0
0
0
0
0
0
0
0
0
0
0
0
0
0
0
0
0
0
0
0
0
0
0
0
0
0
0
0
0
0
0
0
0
0
0
0
0
0
0
0
0
0
0
0
0
0
0
0
0
0
0
0
0
0
0
0
0
0
0
0
0
0
0
0
0
0
0
0
0
0
0
0
0
0
0
0
0
0
0
1.94431e-306
6.817e-307
1.16155e-304
6.75018e-304
0
0
0
0
0
0
0
1.17007e-312
4.99358e-268
4.03332e-205
7.04476e-05
-0.000158748
4.49239e-05
-0.000134881
3.40074e-05
-0.000103928
2.82084e-05
-8.50681e-05
2.46694e-05
-7.38596e-05
2.21414e-05
-6.6404e-05
2.00317e-05
-6.01041e-05
1.80295e-05
-5.3074e-05
1.60998e-05
-4.0766e-05
-2.3385e-05
4.19753e-05
0.000279033
-6.75482e-05
0.000223887
-7.97348e-05
0.000189918
-6.9959e-05
0.00016771
-6.28598e-05
0.000152412
-5.85611e-05
0.000140627
-5.46193e-05
0.000130474
-4.99517e-05
0.000121285
-4.38846e-05
0.000116087
-3.55678e-05
-4.51497e-05
0.000137852
0.000778393
-4.68838e-05
0.00074094
-4.22821e-05
0.000706506
-3.55252e-05
0.00067149
-2.78432e-05
0.000637392
-2.44637e-05
0.000605346
-2.25731e-05
0.000575652
-2.02575e-05
0.000549463
-1.76958e-05
0.000531816
-1.79207e-05
-3.50855e-05
0.000521752
0.00173007
-5.05502e-05
0.00172577
-3.79838e-05
0.00172187
-3.16277e-05
0.00171837
-2.43426e-05
0.00171258
-1.86743e-05
0.00170445
-1.44428e-05
0.00169488
-1.06808e-05
0.00168476
-7.57511e-06
0.00167363
-6.79811e-06
-1.1448e-05
0.00165
0.00154247
-5.25271e-05
0.00154413
-3.9639e-05
0.00154475
-3.22541e-05
0.00154622
-2.5807e-05
0.00154755
-2.0011e-05
0.00154831
-1.5202e-05
0.00154877
-1.11367e-05
0.00154904
-7.8459e-06
0.00154808
-5.8406e-06
-5.5287e-06
0.00154216
0.001545
-5.3693e-05
0.00154658
-4.12139e-05
0.00154749
-3.31661e-05
0.00154877
-2.70889e-05
0.00155023
-2.1467e-05
0.00155145
-1.64274e-05
0.00155242
-1.20998e-05
0.00155302
-8.45044e-06
0.00155273
-5.5544e-06
-3.41631e-06
0.00155062
0.00154775
-5.46707e-05
0.00154885
-4.2307e-05
0.00154953
-3.3845e-05
0.00155043
-2.79925e-05
0.00155155
-2.25903e-05
0.0015527
-1.75725e-05
0.00155378
-1.3183e-05
0.00155456
-9.22799e-06
0.00155408
-5.07732e-06
-1.16507e-06
0.00155183
0.00155061
-5.59035e-05
0.00155057
-4.22663e-05
0.00154995
-3.32239e-05
0.00154903
-2.70751e-05
0.00154763
-2.11842e-05
0.00154596
-1.59108e-05
0.00154422
-1.14355e-05
0.00154245
-7.46249e-06
0.00154075
-3.37309e-06
3.47236e-07
0.00153923
0.00154854
-5.32483e-05
0.00154115
-3.48761e-05
0.0015335
-2.55715e-05
0.00152472
-1.82975e-05
0.00151424
-1.0706e-05
0.00150317
-4.84394e-06
0.00149106
6.81856e-07
0.0014779
5.68986e-06
0.00146428
1.02507e-05
1.49908e-05
0.00144964
0.00147754
0.00142081
0.00137308
0.00133048
0.00129292
0.00125935
0.00122984
0.00120424
0.00118257
0.00116695
0
0
0
0
0
0
0
0
0
0
2.6613e-305
9.69258e-309
3.74248e-272
-1.23759e-309
2.55694e-243
-5.99409e-308
7.30277e-218
-9.52442e-281
3.41541e-195
-1.5198e-251
8.02292e-175
-1.79994e-225
1.7242e-156
-6.53958e-202
5.37505e-140
-1.13592e-180
3.60516e-125
-1.42878e-161
7.23659e-112
-1.96629e-144
5.75847e-100
-4.42383e-129
2.39567e-89
-2.38048e-115
6.49138e-80
-4.16033e-103
1.45149e-71
-3.26563e-92
3.3228e-64
-1.51104e-82
1.01741e-57
-5.71911e-74
4.83328e-52
-2.1447e-66
2.07101e-47
-2.59991e-60
6.17321e-45
-1.3516e-57
7.47862e-43
-2.88395e-55
5.16819e-41
-3.5823e-53
5.81383e-26
-7.45688e-26
5.98415e-25
-7.07058e-25
2.87036e-24
-3.16456e-24
-3.32021e-24
0
0
0
0
0
0
0
0
0
0
3.74105e-308
5.68306e-310
2.35482e-307
2.66796e-309
5.39191e-306
3.89418e-308
5.53882e-279
1.25506e-281
6.56257e-250
-1.34897e-281
6.27328e-224
-7.31726e-256
1.90882e-200
-2.38197e-230
2.82974e-179
-3.09308e-207
3.0719e-160
-2.46287e-186
3.67359e-143
-2.64017e-167
7.20907e-128
-4.84714e-150
3.39609e-114
-2.02903e-134
5.20028e-102
-2.40809e-120
3.58019e-91
-1.06496e-107
1.45343e-81
-2.22011e-96
4.83272e-73
-2.97919e-86
1.596e-65
-3.01108e-77
1.76055e-59
-4.56802e-70
9.15513e-57
-3.24271e-67
1.93073e-54
-9.92444e-65
2.37344e-52
-1.82819e-62
4.89959e-25
-5.64528e-25
4.64824e-24
-4.86534e-24
1.99483e-23
-1.84646e-23
-1.81851e-23
0
0
0
0
0
0
0
0
0
0
1.66236e-309
3.10006e-311
1.69039e-308
2.62909e-310
3.49333e-307
4.32992e-309
9.79231e-281
8.95102e-283
5.76584e-279
3.44278e-281
1.14867e-253
4.12632e-256
2.30434e-228
2.77451e-231
2.15772e-205
-3.02463e-219
1.32411e-184
-8.70131e-198
1.13779e-165
-2.56179e-178
1.71779e-148
-1.47686e-160
6.00832e-133
-1.65575e-144
6.00381e-119
-6.43709e-130
2.24928e-106
-1.12818e-116
3.98371e-95
-1.07869e-104
4.56228e-85
-7.35625e-94
3.9635e-76
-3.95271e-84
5.36334e-69
-2.23975e-76
3.73512e-66
-1.50902e-73
1.10889e-63
-4.82128e-71
1.98745e-61
-1.17317e-68
6.00988e-24
-6.57441e-24
5.08012e-23
-4.96566e-23
1.93717e-22
-1.6138e-22
-1.57884e-22
0
0
0
0
0
0
0
0
0
0
8.59653e-311
1.605e-312
1.24188e-309
1.95538e-311
2.89981e-308
3.75926e-310
5.36479e-282
5.54666e-284
6.17119e-280
4.97197e-282
7.97794e-255
5.07269e-257
4.94381e-230
2.46795e-232
2.65208e-216
9.98638e-219
2.44626e-195
6.31694e-198
4.14964e-176
5.795e-179
1.61846e-158
1.32031e-162
1.33836e-142
-1.82581e-148
3.96281e-128
-1.2796e-133
5.42334e-115
-2.99452e-120
4.10932e-103
-3.78581e-108
2.254e-92
-3.54461e-97
9.90013e-83
-3.39649e-87
4.79555e-75
-2.42034e-79
3.05494e-72
-1.12812e-76
9.16951e-70
-2.69097e-74
2.10886e-67
-1.60849e-71
1.12922e-22
-1.19497e-22
8.19731e-22
-7.56466e-22
2.72045e-21
-2.0621e-21
-1.99409e-21
0
0
0
0
0
0
0
0
0
0
4.42934e-312
7.98968e-314
8.4476e-311
1.29168e-312
2.34019e-309
3.00272e-311
3.20572e-283
3.41528e-285
7.22809e-281
6.37055e-283
8.10087e-256
6.07858e-258
3.55237e-231
2.34281e-233
6.19264e-217
3.6704e-219
3.58133e-196
1.94139e-198
2.96466e-177
1.48765e-179
7.38885e-161
3.42383e-163
1.34645e-145
5.75038e-148
4.07601e-131
1.53154e-133
5.6142e-118
1.69885e-120
4.6062e-106
8.79378e-109
3.01213e-95
1.03987e-98
2.11252e-85
-5.19257e-88
1.17525e-77
-3.34584e-80
4.81183e-75
-1.27284e-77
1.01562e-72
-2.92985e-75
5.44204e-70
-3.01768e-72
3.69913e-21
-3.81862e-21
2.16858e-20
-1.87432e-20
6.05644e-20
-4.09407e-20
-3.91358e-20
0
0
0
0
0
0
0
0
0
0
2.23996e-313
4.07463e-315
5.46464e-312
8.61129e-314
1.87652e-310
2.5787e-312
2.07065e-284
2.50239e-286
1.03512e-281
1.11586e-283
1.16318e-256
1.15398e-258
3.99685e-232
3.76372e-234
-4.64592e-216
-4.23606e-218
-3.8661e-195
-3.45281e-197
-2.19801e-176
-1.93457e-178
-1.79285e-159
-1.55502e-161
-1.57885e-144
-1.34914e-146
4.06902e-130
3.38509e-132
5.34292e-117
4.25196e-119
2.88106e-105
2.11303e-107
1.06223e-94
6.84889e-97
2.92501e-85
1.5298e-87
7.58753e-78
2.65304e-80
1.86313e-75
2.69585e-78
3.16445e-73
-2.38516e-75
2.56198e-70
-3.04032e-72
2.70419e-19
-2.74237e-19
1.146e-18
-9.02142e-19
2.54654e-18
-1.48146e-18
-1.25436e-18
0
0
0
0
0
0
0
0
0
0
1.29623e-314
2.47609e-316
4.32677e-313
7.37573e-315
2.24789e-311
3.46533e-313
2.33017e-285
3.27873e-287
-4.44847e-275
-5.75465e-277
-6.75016e-249
-8.10849e-251
-6.05336e-225
-6.81707e-227
-2.71627e-203
-2.88138e-205
-9.33528e-184
-9.32582e-186
-2.75045e-166
-2.57888e-168
-1.4743e-150
-1.28975e-152
-2.20221e-136
-1.79139e-138
-9.2616e-124
-6.95318e-126
-1.69836e-112
-1.16438e-114
-1.44457e-102
-8.84428e-105
7.36531e-93
3.91209e-95
3.72359e-83
1.63939e-85
5.09094e-76
1.68236e-78
8.09252e-74
1.64845e-76
6.51491e-72
6.44167e-75
1.48512e-69
3.43135e-74
7.73976e-17
-7.76719e-17
1.82963e-16
-1.46729e-16
2.98045e-16
-2.56396e-16
-2.70834e-16
0
0
0
0
0
0
0
0
0
0
1.62986e-315
4.87068e-317
1.38059e-313
3.50461e-315
-9.33897e-291
-2.05588e-292
-7.78111e-266
-1.50854e-267
-1.30216e-243
-2.24782e-245
-3.55475e-223
-5.53064e-225
-3.90401e-204
-5.5561e-206
-1.57662e-186
-2.07447e-188
-2.68705e-170
-3.27725e-172
-1.77028e-155
-1.99361e-157
-7.26954e-142
-7.49324e-144
-2.40162e-129
-2.25733e-131
-5.11417e-118
-4.34778e-120
-1.01932e-107
-7.74236e-110
-2.51343e-98
-1.65266e-100
-7.96138e-90
-4.33607e-92
-1.96522e-82
-8.26761e-85
4.08326e-76
1.15205e-78
4.43554e-76
5.37583e-76
8.58478e-76
6.47422e-75
1.87099e-13
-1.87099e-13
4.77267e-13
-4.45295e-13
8.04989e-13
-7.56729e-13
9.77261e-13
-9.84614e-13
-9.64344e-13
1.68134e-303
2.65019e-304
3.84014e-303
3.11798e-304
9.50074e-303
5.24939e-304
2.59465e-302
1.07075e-303
8.0937e-302
2.59978e-303
3.02491e-301
7.89407e-303
-2.82424e-292
-6.21775e-294
-5.98618e-272
-1.14572e-273
-8.6381e-252
-1.46913e-253
-1.42321e-232
-2.17487e-234
-2.08129e-214
-2.89137e-216
-3.14728e-197
-4.06038e-199
-4.78295e-181
-5.82772e-183
-6.9541e-166
-8.01171e-168
-7.42201e-152
-7.9873e-154
-8.12597e-139
-7.99314e-141
-1.08293e-126
-9.65254e-129
-1.12655e-115
-8.96152e-118
-1.5185e-105
-1.05466e-107
-3.90129e-96
-2.21486e-98
-1.30543e-87
-5.44674e-90
-1.49744e-79
-3.70887e-82
-1.20586e-72
-8.35916e-76
1.53141e-10
-1.53141e-10
6.39531e-10
-4.89548e-10
1.43889e-09
-8.0964e-10
2.21254e-09
-7.91737e-10
3.06097e-09
-8.67878e-10
3.62581e-09
-5.8489e-10
1.4231e-09
1.0374e-205
3.4847e-205
2.55054e-206
7.82351e-206
6.34594e-207
1.91595e-206
1.55442e-207
4.79152e-207
3.68402e-208
1.18602e-207
8.35092e-209
2.84893e-208
1.79564e-209
6.55528e-209
3.63924e-210
1.43171e-209
6.9163e-211
2.94761e-210
1.22733e-211
5.68897e-211
-1.1529e-211
-9.16938e-214
-5.21812e-195
-4.27477e-197
-3.06952e-179
-2.64491e-181
-2.21903e-164
-1.97044e-166
-1.44415e-150
-1.25998e-152
-1.15385e-137
-9.27917e-140
-1.2529e-125
-9.06308e-128
-1.09753e-114
-6.87267e-117
-1.34313e-104
-6.88522e-107
-3.50363e-95
-1.19212e-97
-1.20023e-86
-1.38349e-89
1.29291e-07
-1.29291e-07
4.90483e-07
-3.61192e-07
1.0435e-06
-5.53173e-07
1.79391e-06
-7.50891e-07
2.73267e-06
-9.39559e-07
3.70434e-06
-9.72445e-07
4.70949e-06
-1.006e-06
5.76109e-06
-1.05217e-06
-9.62889e-07
6.75238e-05
-2.55486e-05
8.20948e-05
-1.4571e-05
9.25901e-05
-1.04953e-05
0.000100659
-8.06898e-06
0.000106959
-6.29963e-06
0.000111989
-5.03002e-06
0.000116082
-4.09298e-06
0.000119436
-3.35388e-06
0.000122187
-2.75183e-06
0.000124475
-2.28742e-06
0.000126406
-1.92723e-06
0.000128005
-1.59878e-06
0.000129291
-1.28636e-06
0.000130316
-1.02424e-06
0.00013116
-8.44259e-07
0.000131921
-7.60881e-07
0.000132634
-7.12669e-07
0.000133334
-7.00481e-07
0.000134055
-7.20677e-07
0.00013489
-8.35431e-07
0.000135911
-1.03512e-06
0.000137071
-1.28939e-06
0.000138217
-1.50722e-06
0.000139265
-1.60084e-06
0.000140265
-1.7505e-06
0.00014122
-1.89529e-06
0.000142026
-1.77838e-06
0.000142725
-1.70486e-06
0.00014336
-1.68696e-06
-1.51577e-06
0.000166566
-5.42633e-05
0.000192535
-4.05394e-05
0.000212581
-3.0542e-05
0.000228977
-2.44641e-05
0.000242588
-1.9911e-05
0.000254069
-1.65113e-05
0.000263944
-1.3968e-05
0.000272572
-1.19815e-05
0.000280198
-1.03779e-05
0.000287013
-9.10242e-06
0.000293177
-8.09099e-06
0.000298806
-7.22753e-06
0.000303974
-6.45532e-06
0.000308735
-5.78501e-06
0.000313128
-5.23728e-06
0.000317185
-4.81803e-06
0.00032093
-4.45756e-06
0.000324376
-4.14582e-06
0.000327527
-3.87188e-06
0.000330382
-3.69094e-06
0.000332938
-3.59038e-06
0.000335171
-3.5232e-06
0.000337002
-3.33776e-06
0.000338327
-2.92567e-06
0.000339257
-2.68114e-06
0.000339833
-2.47077e-06
0.000340075
-2.02068e-06
0.000340068
-1.6978e-06
0.000339919
-1.53824e-06
-1.35186e-06
0.000527869
-6.03802e-05
0.000543203
-5.58738e-05
0.000558776
-4.61152e-05
0.000573705
-3.93929e-05
0.000587937
-3.41429e-05
0.000601144
-2.97182e-05
0.000613337
-2.61616e-05
0.000624633
-2.32772e-05
0.000635125
-2.08706e-05
0.000644917
-1.88941e-05
0.000654127
-1.73004e-05
0.000662821
-1.59224e-05
0.00067103
-1.4664e-05
0.000678776
-1.35307e-05
0.000686084
-1.25455e-05
0.000692972
-1.17062e-05
0.000699449
-1.09346e-05
0.000705504
-1.02002e-05
0.000711116
-9.48468e-06
0.000716253
-8.82706e-06
0.000720875
-8.21279e-06
0.000724913
-7.56132e-06
0.000728175
-6.59952e-06
0.000730461
-5.21201e-06
0.000731969
-4.18864e-06
0.000732748
-3.25055e-06
0.000732842
-2.11416e-06
0.000732353
-1.20863e-06
0.000731746
-9.31962e-07
-6.78447e-07
0.00163871
-4.90995e-05
0.00163034
-4.75003e-05
0.00162595
-4.17208e-05
0.00162249
-3.59385e-05
0.00161938
-3.10279e-05
0.00161625
-2.65924e-05
0.00161278
-2.26878e-05
0.00160889
-1.93863e-05
0.00160467
-1.66531e-05
0.00160035
-1.4577e-05
0.00159627
-1.32172e-05
0.00159266
-1.23116e-05
0.00158967
-1.16744e-05
0.00158741
-1.12709e-05
0.00158595
-1.10917e-05
0.00158532
-1.10727e-05
0.00158545
-1.10675e-05
0.00158621
-1.09606e-05
0.00158742
-1.06868e-05
0.0015888
-1.02092e-05
0.00159009
-9.49973e-06
0.00159094
-8.41497e-06
0.00159092
-6.58301e-06
0.00158986
-4.15017e-06
0.00158774
-2.06337e-06
0.00158443
5.09221e-08
0.00157991
2.41049e-06
0.00157413
4.57313e-06
0.00156865
4.54717e-06
3.28551e-06
0.00153869
-4.56288e-05
0.00153611
-4.49169e-05
0.0015355
-4.11091e-05
0.00153568
-3.61233e-05
0.00153587
-3.12148e-05
0.00153579
-2.65176e-05
0.0015352
-2.20961e-05
0.00153388
-1.80647e-05
0.00153172
-1.44878e-05
0.00152872
-1.15802e-05
0.00152501
-9.50769e-06
0.00152066
-7.96049e-06
0.00151576
-6.77527e-06
0.0015104
-5.90701e-06
0.00150464
-5.3401e-06
0.00149855
-4.9835e-06
0.00149215
-4.65887e-06
0.00148534
-4.15565e-06
0.00147802
-3.36776e-06
0.00147
-2.18916e-06
0.00146103
-5.30377e-07
0.00145081
1.80394e-06
0.00143934
4.89327e-06
0.00142742
7.77162e-06
0.00141475
1.06058e-05
0.00140124
1.35547e-05
0.00138697
1.66821e-05
0.00137194
1.96021e-05
0.00135753
1.89624e-05
1.15612e-05
0.00154889
-4.38923e-05
0.00154766
-4.36906e-05
0.00154762
-4.10657e-05
0.00154838
-3.68907e-05
0.00154934
-3.21725e-05
0.00155021
-2.7388e-05
0.00155078
-2.26696e-05
0.00155081
-1.80904e-05
0.00155014
-1.38195e-05
0.00154884
-1.02819e-05
0.00154696
-7.61892e-06
0.00154431
-5.31481e-06
0.00154076
-3.2217e-06
0.00153617
-1.3195e-06
0.00153039
4.42818e-07
0.00152322
2.18327e-06
0.00151444
4.12288e-06
0.0015038
6.47695e-06
0.00149104
9.39962e-06
0.0014758
1.30448e-05
0.00145784
1.74356e-05
0.00143696
2.2679e-05
0.00141381
2.80413e-05
0.00139054
3.10423e-05
0.00136695
3.42039e-05
0.00134321
3.72912e-05
0.00131959
4.03011e-05
0.0012962
4.29943e-05
0.00127401
4.11468e-05
2.33535e-05
0.00155032
-4.23827e-05
0.00154844
-4.18093e-05
0.00154713
-3.97519e-05
0.00154626
-3.603e-05
0.00154554
-3.14523e-05
0.00154477
-2.66128e-05
0.00154376
-2.16583e-05
0.00154217
-1.65037e-05
0.00153963
-1.12811e-05
0.00153602
-6.67419e-06
0.00153139
-2.98847e-06
0.00152537
7.04642e-07
0.00151778
4.37639e-06
0.00150832
8.13476e-06
0.00149681
1.19552e-05
0.00148303
1.5961e-05
0.00146677
2.03882e-05
0.00144775
2.54916e-05
0.00142581
3.1338e-05
0.00140085
3.80135e-05
0.00137277
4.55107e-05
0.00134175
5.37007e-05
0.00130904
6.07459e-05
0.00127778
6.23047e-05
0.00124759
6.44008e-05
0.00121863
6.62512e-05
0.00119105
6.78722e-05
0.00116487
6.91805e-05
0.00113981
6.62078e-05
3.70837e-05
0.00153416
-3.73133e-05
0.00152878
-3.64233e-05
0.00152281
-3.37857e-05
0.00151621
-2.94254e-05
0.00150919
-2.44386e-05
0.00150163
-1.90445e-05
0.00149349
-1.35248e-05
0.00148441
-7.41975e-06
0.00147385
-7.19441e-07
0.00146144
5.73162e-06
0.00144686
1.15893e-05
0.00143029
1.72761e-05
0.00141182
2.28442e-05
0.00139127
2.86901e-05
0.0013688
3.44231e-05
0.00134434
4.04232e-05
0.00131789
4.68407e-05
0.0012895
5.38763e-05
0.00125923
6.16113e-05
0.00122714
7.01014e-05
0.00119335
7.9297e-05
0.00115808
8.89752e-05
0.00112258
9.62443e-05
0.00108999
9.48909e-05
0.00105964
9.47578e-05
0.00103144
9.44513e-05
0.0010053
9.40073e-05
0.000980944
9.3539e-05
0.000956422
9.07293e-05
5.00868e-05
0.00143434
-2.20143e-05
0.00141777
-1.98581e-05
0.00140056
-1.65744e-05
0.001382
-1.08616e-05
0.00136309
-5.53418e-06
0.00134286
1.18588e-06
0.00132066
8.67856e-06
0.00129683
1.64102e-05
0.00127213
2.39767e-05
0.00124686
3.09999e-05
0.00122132
3.71357e-05
0.00119537
4.32287e-05
0.00116886
4.93464e-05
0.00114186
5.56924e-05
0.00111403
6.22516e-05
0.00108529
6.91626e-05
0.00105559
7.65466e-05
0.00102493
8.45385e-05
0.000993385
9.31519e-05
0.000961096
0.00010239
0.000928199
0.000112194
0.000894749
0.000122425
0.000861754
0.00012924
0.00083218
0.000124465
0.00080536
0.000121578
0.000781034
0.000118777
0.000758778
0.000116263
0.000739195
0.000113122
0.000715673
0.000114252
6.60387e-05
0.00113566
0.00110497
0.00107379
0.00104379
0.00101466
0.000987552
0.000962942
0.000940493
0.000919494
0.000899016
0.000878082
0.000856311
0.000833394
0.000809198
0.000783645
0.000756802
0.000728851
0.000700064
0.000670726
0.000641112
0.00061147
0.000581749
0.000552528
0.000526829
0.000504299
0.000484369
0.000466401
0.000451492
0.000429737
)
;

boundaryField
{
    walls
    {
        type            calculated;
        value           nonuniform List<scalar> 
100
(
0
0
0
0
0
0
0
3.51976e-312
1.31472e-267
-1.68133e-206
0
0
0
0
0
0
0
0
0
0
0
0
0
0
0
7.29174e-307
1.24021e-273
1.01321e-244
3.43139e-219
1.88308e-196
5.1223e-176
1.26459e-157
4.50703e-141
3.44374e-126
7.85224e-113
7.08432e-101
3.33438e-90
1.02108e-80
2.57752e-72
6.65803e-65
2.29885e-58
1.23271e-52
5.79896e-48
1.72011e-45
2.0916e-43
1.45156e-41
1.64304e-26
1.66781e-25
8.92608e-25
9.97828e-25
9.28204e-06
1.08262e-05
1.46063e-05
1.91418e-05
2.35902e-05
2.82985e-05
3.32885e-05
3.88596e-05
4.49759e-05
5.14782e-05
5.80695e-05
6.49989e-05
7.22636e-05
7.98891e-05
8.78042e-05
9.60057e-05
0.000104497
0.000113325
0.00012249
0.000132004
0.000141836
0.000152146
0.000158461
0.000150164
0.000144108
0.000138707
0.000134231
0.000128032
0.000136007
8.03443e-05
0.000262546
0.000160404
0.000114844
9.08671e-05
7.73986e-05
6.8932e-05
6.22138e-05
5.50762e-05
4.26957e-05
-2.49046e-06
2.22545e-05
2.18579e-05
2.21561e-05
2.42984e-05
2.68575e-05
2.87223e-05
3.01924e-05
3.12943e-05
3.19253e-05
3.0602e-05
)
;
    }
    topInlet
    {
        type            calculated;
        value           nonuniform List<scalar> 10(-0.000174246 -0.000370233 -0.000799057 -0.0017264 -0.00154049 -0.00154384 -0.00154678 -0.00154938 -0.00155119 -0.00155304);
    }
    bottomInlet
    {
        type            calculated;
        value           uniform 0;
    }
    outlet
    {
        type            calculated;
        value           nonuniform List<scalar> 
20
(
5.19275e-24
3.48131e-23
3.33416e-22
4.55666e-21
9.77061e-20
3.68858e-18
3.12022e-16
6.8207e-13
2.17708e-09
6.72542e-06
0.000143913
0.000339756
0.000731073
0.00156469
0.00134925
0.00126222
0.00112608
0.000943419
0.000699721
0.000415431
)
;
    }
    frontBack
    {
        type            empty;
        value           nonuniform 0();
    }
}


// ************************************************************************* //
