/*--------------------------------*- C++ -*----------------------------------*\
| =========                 |                                                 |
| \\      /  F ield         | OpenFOAM: The Open Source CFD Toolbox           |
|  \\    /   O peration     | Version:  4.x                                   |
|   \\  /    A nd           | Web:      www.OpenFOAM.org                      |
|    \\/     M anipulation  |                                                 |
\*---------------------------------------------------------------------------*/
FoamFile
{
    version     2.0;
    format      ascii;
    class       volVectorField;
    location    "0.35";
    object      U;
}
// * * * * * * * * * * * * * * * * * * * * * * * * * * * * * * * * * * * * * //

dimensions      [0 1 -1 0 0 0 0];

internalField   nonuniform List<vector> 
800
(
(19.166 0.771064 1.84309e-24)
(18.5157 0.561383 2.48765e-24)
(17.8901 0.392834 1.9271e-24)
(17.3162 0.241046 -1.14073e-27)
(16.8081 0.0949634 3.0202e-26)
(16.357 -0.044846 -2.18971e-30)
(15.9536 -0.172651 0)
(15.6011 -0.282466 -9.08757e-28)
(15.2987 -0.374414 6.05216e-27)
(15.0929 -0.43815 1.46116e-24)
(19.748 0.960598 5.05665e-25)
(19.7186 0.866409 8.41393e-30)
(19.673 0.835482 1.42803e-26)
(19.5776 0.835933 8.00242e-26)
(19.4537 0.841936 5.84296e-25)
(19.3152 0.843478 5.42023e-25)
(19.1717 0.842684 -1.67734e-26)
(19.0145 0.838498 0)
(18.8457 0.832572 0)
(18.6771 0.81635 -6.10001e-25)
(19.7385 0.972078 0)
(19.7758 0.875396 -7.58405e-25)
(19.8324 0.806785 1.43263e-25)
(19.8406 0.745405 5.76224e-25)
(19.8231 0.673646 0)
(19.8006 0.598856 -7.63725e-25)
(19.7786 0.527273 7.7053e-25)
(19.757 0.462824 7.39471e-25)
(19.7352 0.40819 6.76732e-25)
(19.722 0.356722 5.06302e-27)
(19.6866 0.956488 7.38751e-25)
(19.7343 0.858701 -8.70651e-25)
(19.8159 0.795067 4.0236e-25)
(19.8464 0.748303 -6.88548e-26)
(19.8539 0.708309 3.60525e-25)
(19.8632 0.678768 -2.04532e-25)
(19.8771 0.661359 2.27056e-25)
(19.8906 0.653592 1.50095e-26)
(19.8961 0.649243 -3.29126e-27)
(19.8832 0.639138 1.94692e-27)
(19.6304 0.94542 3.17926e-24)
(19.6885 0.847997 -1.62147e-24)
(19.7875 0.788343 7.58029e-25)
(19.8254 0.741763 -4.10621e-25)
(19.8362 0.699163 1.86928e-30)
(19.8481 0.660184 -1.3091e-26)
(19.8628 0.622826 3.40887e-25)
(19.8752 0.585788 1.45645e-26)
(19.8798 0.551117 -3.48122e-25)
(19.8651 0.521842 0)
(19.5707 0.929244 1.85651e-24)
(19.6401 0.837877 1.40389e-25)
(19.7545 0.773309 8.61355e-25)
(19.7959 0.716488 -4.29124e-25)
(19.8055 0.671869 -3.78271e-25)
(19.8134 0.638778 0)
(19.8219 0.612438 0)
(19.8282 0.592699 -1.68185e-25)
(19.8268 0.587239 -3.98773e-27)
(19.7856 0.606285 2.09471e-25)
(19.4947 0.878372 -6.83335e-25)
(19.5519 0.860625 1.65037e-29)
(19.6291 0.80695 9.55397e-25)
(19.6162 0.732648 -1.20439e-24)
(19.5576 0.671461 6.06304e-26)
(19.4782 0.622325 4.60318e-25)
(19.3823 0.579947 3.79102e-25)
(19.2746 0.546257 -3.3363e-25)
(19.1587 0.539148 3.54519e-26)
(18.9594 0.621272 1.43003e-24)
(19.1359 0.678392 0)
(18.5855 0.704707 -1.19099e-29)
(17.8367 0.68644 1.03538e-24)
(16.9876 0.667222 -1.57276e-24)
(16.1419 0.660172 1.60264e-26)
(15.3421 0.646533 4.54201e-25)
(14.597 0.618358 9.23485e-25)
(13.9132 0.577455 -1.14545e-26)
(13.3371 0.543337 0)
(12.8621 0.686522 1.21157e-24)
(16.0926 1.69939 4.29093e-24)
(13.0204 1.56681 -9.4237e-24)
(10.8364 1.32667 3.99647e-24)
(9.41945 1.14801 6.30802e-27)
(8.48343 1.03071 3.76783e-27)
(7.80199 0.94436 -1.16599e-27)
(7.2419 0.866481 -3.04456e-24)
(6.74035 0.779642 0)
(6.29767 0.644968 -1.46766e-27)
(6.02293 0.483211 -5.72185e-29)
(10.0313 2.34214 6.00362e-27)
(6.0084 1.68558 -3.95681e-23)
(4.34711 1.20504 -7.45955e-28)
(3.50243 0.947928 -1.15952e-23)
(3.01435 0.804174 -1.71139e-28)
(2.69011 0.713106 -2.73429e-28)
(2.4368 0.640988 -1.4332e-28)
(2.21091 0.56621 -7.14597e-24)
(1.9863 0.444877 1.7247e-28)
(1.73174 0.175398 -4.26226e-29)
(9.91845 -2.34857 6.3898e-23)
(5.91163 -1.68264 1.87175e-27)
(4.27118 -1.19889 2.89749e-23)
(3.44009 -0.941715 -1.16027e-23)
(2.96045 -0.798769 1.71475e-28)
(2.6408 -0.708062 2.72183e-28)
(2.38985 -0.635572 1.41182e-28)
(2.16542 -0.559635 7.11186e-24)
(1.94321 -0.43654 -1.76856e-28)
(1.69657 -0.167603 4.25095e-29)
(16.0123 -1.71402 4.4935e-24)
(12.9156 -1.57732 -9.76901e-24)
(10.7304 -1.33079 4.10148e-24)
(9.31885 -1.14874 -1.30309e-26)
(8.38729 -1.03018 -3.82357e-27)
(7.70741 -0.942877 1.19142e-27)
(7.14679 -0.863645 -3.09267e-24)
(6.64408 -0.774743 0)
(6.20175 -0.637117 1.49711e-27)
(5.93184 -0.474555 5.53839e-29)
(19.1087 -0.669719 0)
(18.5417 -0.700286 -1.23506e-29)
(17.7735 -0.683911 1.03678e-24)
(16.9049 -0.665183 -1.57899e-24)
(16.0422 -0.658035 -1.6534e-26)
(15.2286 -0.643747 4.29639e-25)
(14.4725 -0.614596 9.50794e-25)
(13.7803 -0.572655 1.18949e-26)
(13.1998 -0.538045 0)
(12.7268 -0.684172 1.24044e-24)
(19.4817 -0.872942 1.5193e-24)
(19.5413 -0.854262 3.5735e-25)
(19.6201 -0.799136 9.86155e-25)
(19.6055 -0.723276 -1.47323e-24)
(19.5433 -0.661071 -6.20736e-26)
(19.4596 -0.611469 4.67795e-25)
(19.359 -0.568977 4.4059e-25)
(19.2464 -0.535527 -3.02022e-25)
(19.1253 -0.529426 0)
(18.9194 -0.614224 1.47028e-24)
(19.56 -0.925774 1.912e-24)
(19.632 -0.832514 -1.45805e-25)
(19.7498 -0.767267 3.76261e-28)
(19.7922 -0.709933 -3.3606e-28)
(19.8018 -0.665043 -3.15337e-26)
(19.8096 -0.631876 3.00622e-25)
(19.8181 -0.605533 0)
(19.8245 -0.586027 -1.63916e-25)
(19.8229 -0.581498 4.21726e-27)
(19.7803 -0.602189 2.14784e-25)
(19.6212 -0.942796 6.50339e-26)
(19.6814 -0.843197 -1.77414e-24)
(19.7836 -0.782516 1.903e-29)
(19.8226 -0.735257 -7.22994e-30)
(19.8336 -0.692043 3.75571e-25)
(19.8458 -0.652225 3.6587e-25)
(19.8609 -0.613601 3.71555e-25)
(19.8735 -0.574907 0)
(19.8781 -0.538879 -3.65312e-25)
(19.8636 -0.510033 0)
(19.6788 -0.954447 7.55196e-25)
(19.7282 -0.854386 -9.89447e-25)
(19.8124 -0.789416 4.09155e-25)
(19.8438 -0.742198 6.10033e-30)
(19.8516 -0.702678 3.12396e-25)
(19.8617 -0.674067 -2.48648e-25)
(19.8767 -0.657724 1.78059e-25)
(19.891 -0.650385 -1.51087e-26)
(19.896 -0.646396 3.19283e-27)
(19.8817 -0.635467 -2.34724e-27)
(19.7318 -0.970788 0)
(19.7707 -0.871752 -9.57944e-25)
(19.8291 -0.800557 -1.47262e-25)
(19.8372 -0.736341 6.0652e-25)
(19.8189 -0.662547 0)
(19.7961 -0.586059 -7.8646e-25)
(19.7745 -0.513557 7.87258e-25)
(19.7533 -0.449746 7.38124e-25)
(19.732 -0.395968 6.65901e-25)
(19.7189 -0.343654 -5.29221e-27)
(19.7415 -0.959551 5.06535e-25)
(19.7134 -0.865193 8.93772e-30)
(19.6691 -0.835906 -1.56453e-25)
(19.5727 -0.838373 2.28976e-25)
(19.4468 -0.844716 4.19707e-25)
(19.3069 -0.845989 5.25698e-25)
(19.1605 -0.844484 1.65509e-26)
(19 -0.84013 0)
(18.8287 -0.834001 0)
(18.6585 -0.818656 -6.50034e-25)
(19.1511 -0.764878 3.38778e-24)
(18.4951 -0.546306 2.56124e-24)
(17.8651 -0.372246 2.03407e-24)
(17.2888 -0.216769 -1.82671e-24)
(16.7783 -0.0674724 -3.51034e-24)
(16.3251 0.074787 -3.43655e-24)
(15.9215 0.203827 0)
(15.5704 0.314523 8.61948e-28)
(15.2695 0.406365 -6.06891e-27)
(15.0647 0.46911 2.94674e-24)
(14.7835 -0.418725 0)
(14.3739 -0.421362 0)
(13.9616 -0.452467 0)
(13.5654 -0.500506 0)
(13.1854 -0.559297 0)
(12.8182 -0.623354 0)
(12.4846 -0.680174 0)
(12.1809 -0.725534 0)
(11.9011 -0.761349 0)
(11.6358 -0.78535 0)
(11.3712 -0.797942 0)
(11.0982 -0.802184 0)
(10.8119 -0.799745 0)
(10.5102 -0.793275 0)
(10.1922 -0.784021 0)
(9.85907 -0.771709 0)
(9.51183 -0.756749 0)
(9.1536 -0.739933 0)
(8.78762 -0.721183 0)
(8.41802 -0.701435 0)
(8.04805 -0.680563 0)
(7.68144 -0.658831 0)
(7.31325 -0.630901 0)
(6.97396 -0.602915 0)
(6.67749 -0.582625 0)
(6.41653 -0.565013 0)
(6.18566 -0.549531 0)
(5.96368 -0.528805 0)
(5.84311 -0.547647 0)
(5.40446 -0.349598 0)
(18.4887 0.737195 0)
(18.272 0.657234 0)
(18.0488 0.583805 0)
(17.8217 0.520215 0)
(17.5838 0.464543 0)
(17.3376 0.415218 0)
(17.0675 0.368539 0)
(16.7737 0.32784 0)
(16.4598 0.297774 0)
(16.1361 0.273799 0)
(15.8077 0.255423 0)
(15.4746 0.240349 0)
(15.136 0.22735 0)
(14.7909 0.216763 0)
(14.4382 0.207808 0)
(14.0762 0.198356 0)
(13.7035 0.189272 0)
(13.3201 0.179766 0)
(12.9265 0.169679 0)
(12.5242 0.159636 0)
(12.1154 0.149678 0)
(11.7016 0.140233 0)
(11.2855 0.131223 0)
(10.9007 0.122091 0)
(10.5518 0.11367 0)
(10.2361 0.106773 0)
(9.94922 0.10136 0)
(9.68367 0.0941295 0)
(9.4608 0.102513 0)
(9.08519 0.0834461 0)
(19.6776 0.316664 0)
(19.611 0.270814 0)
(19.5353 0.216095 0)
(19.455 0.149965 0)
(19.3686 0.0799985 0)
(19.2753 0.012905 0)
(19.174 -0.0482485 0)
(19.0633 -0.100531 0)
(18.94 -0.139218 0)
(18.7955 -0.166457 0)
(18.6247 -0.188467 0)
(18.4259 -0.204807 0)
(18.2005 -0.216265 0)
(17.9498 -0.222741 0)
(17.6736 -0.22478 0)
(17.3723 -0.224576 0)
(17.0463 -0.224387 0)
(16.6961 -0.223197 0)
(16.3225 -0.220712 0)
(15.9269 -0.218314 0)
(15.5107 -0.21524 0)
(15.076 -0.211205 0)
(14.6296 -0.205084 0)
(14.2094 -0.198781 0)
(13.8175 -0.194268 0)
(13.4538 -0.190443 0)
(13.1167 -0.186774 0)
(12.8016 -0.18212 0)
(12.5185 -0.181378 0)
(12.1813 -0.120936 0)
(19.8597 0.599341 0)
(19.8339 0.541834 0)
(19.812 0.471466 0)
(19.7976 0.397041 0)
(19.7884 0.32939 0)
(19.7796 0.2744 0)
(19.7682 0.233076 0)
(19.7518 0.203709 0)
(19.7269 0.182107 0)
(19.6889 0.167595 0)
(19.6363 0.154108 0)
(19.5694 0.141832 0)
(19.4844 0.13149 0)
(19.3775 0.121686 0)
(19.2457 0.110971 0)
(19.0856 0.0995066 0)
(18.8948 0.0855662 0)
(18.6709 0.0706293 0)
(18.411 0.0558128 0)
(18.1132 0.0428947 0)
(17.7769 0.0304962 0)
(17.4023 0.0188457 0)
(16.9969 0.00920495 0)
(16.5991 0.000761186 0)
(16.2133 -0.00741682 0)
(15.843 -0.0145663 0)
(15.49 -0.0203906 0)
(15.1538 -0.025942 0)
(14.842 -0.0224912 0)
(14.5131 -0.00322331 0)
(19.8426 0.487956 0)
(19.8192 0.430815 0)
(19.8082 0.357659 0)
(19.813 0.283855 0)
(19.8268 0.218431 0)
(19.841 0.162396 0)
(19.8514 0.114227 0)
(19.8562 0.0720466 0)
(19.8533 0.0342965 0)
(19.8414 0.00140434 0)
(19.8208 -0.0228276 0)
(19.792 -0.0402293 0)
(19.7538 -0.0516022 0)
(19.7038 -0.057991 0)
(19.6398 -0.0611258 0)
(19.5598 -0.0620485 0)
(19.4608 -0.0604588 0)
(19.34 -0.0575463 0)
(19.1938 -0.0543607 0)
(19.0183 -0.0499871 0)
(18.8093 -0.0461753 0)
(18.5635 -0.0433849 0)
(18.2827 -0.0424227 0)
(17.9925 -0.0423584 0)
(17.6965 -0.0429477 0)
(17.3983 -0.0444013 0)
(17.1006 -0.0458588 0)
(16.805 -0.0470626 0)
(16.5216 -0.0456592 0)
(16.2362 -0.0327784 0)
(19.7333 0.573866 0)
(19.6838 0.498103 0)
(19.6594 0.402751 0)
(19.6593 0.316456 0)
(19.6677 0.246462 0)
(19.6727 0.190185 0)
(19.6704 0.146051 0)
(19.6597 0.113313 0)
(19.6393 0.0909201 0)
(19.6081 0.0781266 0)
(19.5667 0.0732033 0)
(19.5168 0.0724335 0)
(19.4596 0.0726428 0)
(19.3959 0.0721245 0)
(19.3267 0.070557 0)
(19.2526 0.0679172 0)
(19.174 0.0639948 0)
(19.0907 0.0588807 0)
(19.0015 0.0528312 0)
(18.9043 0.0448457 0)
(18.7966 0.0363972 0)
(18.6748 0.0280281 0)
(18.536 0.0190052 0)
(18.3892 0.0107995 0)
(18.2332 0.00417278 0)
(18.0678 -0.000926189 0)
(17.8928 -0.00525182 0)
(17.7081 -0.00931779 0)
(17.523 -0.00967476 0)
(17.3315 -0.00568473 0)
(18.7938 0.629584 0)
(18.6521 0.541967 0)
(18.5732 0.42882 0)
(18.5384 0.337534 0)
(18.5126 0.267934 0)
(18.4819 0.213609 0)
(18.4456 0.17157 0)
(18.4045 0.139163 0)
(18.3592 0.113359 0)
(18.3109 0.0917147 0)
(18.2625 0.0729762 0)
(18.2175 0.0563804 0)
(18.1787 0.0418589 0)
(18.1475 0.0297633 0)
(18.1245 0.0201429 0)
(18.1103 0.0126566 0)
(18.1047 0.00726158 0)
(18.1069 0.00339582 0)
(18.1151 0.000687204 0)
(18.1269 -0.000789782 0)
(18.1393 -0.00159554 0)
(18.1491 -0.002307 0)
(18.1518 -0.00276867 0)
(18.1442 -0.00326016 0)
(18.1254 -0.00315027 0)
(18.0947 -0.0029355 0)
(18.0509 -0.00369491 0)
(17.9929 -0.00454652 0)
(17.9295 -0.00443167 0)
(17.8563 -0.00459019 0)
(13.0214 0.763608 0)
(13.2505 0.613377 0)
(13.5971 0.456012 0)
(13.9857 0.343972 0)
(14.3495 0.262419 0)
(14.6793 0.202255 0)
(14.9823 0.158276 0)
(15.2635 0.125758 0)
(15.5249 0.101072 0)
(15.768 0.0819856 0)
(15.9955 0.0673765 0)
(16.2101 0.0563023 0)
(16.4132 0.0477383 0)
(16.6051 0.0408077 0)
(16.7861 0.034934 0)
(16.9565 0.0298025 0)
(17.1169 0.0253461 0)
(17.2673 0.0213924 0)
(17.4074 0.0178644 0)
(17.5366 0.0145346 0)
(17.6539 0.0114548 0)
(17.7583 0.0086871 0)
(17.8465 0.00617197 0)
(17.9119 0.00410478 0)
(17.9575 0.00229286 0)
(17.9852 0.000773331 0)
(17.9963 -0.00069032 0)
(17.9907 -0.00166182 0)
(17.978 -0.00215144 0)
(17.9543 -0.00207958 0)
(8.29028 0.548008 0)
(9.66017 0.345463 0)
(10.8099 0.226414 0)
(11.7707 0.160009 0)
(12.5519 0.116651 0)
(13.1999 0.0875353 0)
(13.7527 0.067632 0)
(14.2333 0.053477 0)
(14.6564 0.0429811 0)
(15.0326 0.0349065 0)
(15.3709 0.0286871 0)
(15.6787 0.0239678 0)
(15.9611 0.0202688 0)
(16.221 0.0171663 0)
(16.4607 0.014433 0)
(16.6819 0.0119722 0)
(16.8861 0.0098677 0)
(17.0744 0.00804281 0)
(17.2473 0.00645196 0)
(17.4047 0.00496271 0)
(17.5465 0.00359441 0)
(17.6723 0.00235583 0)
(17.7793 0.00126541 0)
(17.8601 0.00033318 0)
(17.919 -0.000514824 0)
(17.9584 -0.00111425 0)
(17.9801 -0.00147011 0)
(17.9845 -0.0017615 0)
(17.9813 -0.00199213 0)
(17.9669 -0.0018126 0)
(6.89163 0.191285 0)
(8.79928 0.0937982 0)
(10.2168 0.0604339 0)
(11.3322 0.0435779 0)
(12.2139 0.0326212 0)
(12.9323 0.0253036 0)
(13.5365 0.020297 0)
(14.0561 0.0167427 0)
(14.5094 0.0140748 0)
(14.9097 0.0118741 0)
(15.2674 0.0100772 0)
(15.5912 0.00874888 0)
(15.887 0.00773052 0)
(16.1582 0.00680036 0)
(16.4076 0.00584982 0)
(16.6371 0.00486122 0)
(16.8485 0.00398162 0)
(17.043 0.00318776 0)
(17.2212 0.00247223 0)
(17.3831 0.00173518 0)
(17.5289 0.00101242 0)
(17.6582 0.000341312 0)
(17.7681 -0.000226064 0)
(17.8514 -0.000710135 0)
(17.9122 -0.00117158 0)
(17.9534 -0.00157848 0)
(17.9766 -0.00169421 0)
(17.9823 -0.00179289 0)
(17.9805 -0.00189829 0)
(17.9674 -0.00171177 0)
(6.87767 -0.180559 0)
(8.787 -0.0819117 0)
(10.2066 -0.0483317 0)
(11.3236 -0.0317737 0)
(12.2064 -0.0212653 0)
(12.9257 -0.0144338 0)
(13.5306 -0.00986335 0)
(14.0507 -0.0066163 0)
(14.5046 -0.00427311 0)
(14.9052 -0.00272228 0)
(15.2634 -0.00169152 0)
(15.5876 -0.000844853 0)
(15.8836 -0.000138022 0)
(16.1552 0.00033127 0)
(16.4048 0.000525738 0)
(16.6346 0.000477174 0)
(16.8463 0.000373661 0)
(17.0411 0.00022667 0)
(17.2195 5.517e-05 0)
(17.3817 -0.000221651 0)
(17.5277 -0.000554075 0)
(17.6571 -0.000884073 0)
(17.7671 -0.00114017 0)
(17.8505 -0.00136598 0)
(17.9113 -0.00162127 0)
(17.9525 -0.00187003 0)
(17.9756 -0.00182914 0)
(17.9813 -0.00181099 0)
(17.9793 -0.00183414 0)
(17.9661 -0.00164985 0)
(8.22321 -0.537576 0)
(9.60282 -0.332978 0)
(10.7617 -0.213828 0)
(11.7299 -0.147854 0)
(12.5167 -0.105025 0)
(13.1692 -0.0764566 0)
(13.7254 -0.0570331 0)
(14.2089 -0.0432178 0)
(14.6344 -0.0330785 0)
(15.0127 -0.025687 0)
(15.3529 -0.0202598 0)
(15.6624 -0.0160374 0)
(15.9463 -0.0126538 0)
(16.2076 -0.0100066 0)
(16.4485 -0.0080196 0)
(16.671 -0.00658607 0)
(16.8765 -0.00545772 0)
(17.066 -0.00457325 0)
(17.2399 -0.00387489 0)
(17.3983 -0.00341497 0)
(17.541 -0.00312215 0)
(17.6676 -0.00290628 0)
(17.7751 -0.00266397 0)
(17.8563 -0.00247868 0)
(17.9152 -0.00241509 0)
(17.9546 -0.00237858 0)
(17.9761 -0.00206422 0)
(17.9801 -0.00184647 0)
(17.9765 -0.00174151 0)
(17.9617 -0.00155749 0)
(12.8982 -0.761433 0)
(13.1385 -0.608183 0)
(13.4964 -0.448729 0)
(13.8954 -0.335586 0)
(14.2681 -0.253477 0)
(14.6055 -0.193114 0)
(14.9151 -0.149099 0)
(15.202 -0.116561 0)
(15.4683 -0.0920176 0)
(15.7162 -0.0735374 0)
(15.9482 -0.0597451 0)
(16.1669 -0.049261 0)
(16.3736 -0.0411112 0)
(16.5688 -0.0346737 0)
(16.7531 -0.0295063 0)
(16.9268 -0.0252675 0)
(17.0904 -0.0215784 0)
(17.244 -0.0183345 0)
(17.387 -0.0154737 0)
(17.5188 -0.0130055 0)
(17.6384 -0.0108931 0)
(17.7449 -0.00906519 0)
(17.8346 -0.00737083 0)
(17.901 -0.00596543 0)
(17.947 -0.00493769 0)
(17.9748 -0.0040516 0)
(17.9854 -0.00289219 0)
(17.9791 -0.00203016 0)
(17.9654 -0.00162965 0)
(17.9405 -0.00142219 0)
(18.7491 -0.62352 0)
(18.6035 -0.535453 0)
(18.5223 -0.421506 0)
(18.4858 -0.329642 0)
(18.4587 -0.259724 0)
(18.4267 -0.205256 0)
(18.389 -0.163075 0)
(18.3468 -0.130362 0)
(18.3003 -0.104158 0)
(18.2512 -0.0822237 0)
(18.2025 -0.063138 0)
(18.1579 -0.0461711 0)
(18.1199 -0.0317606 0)
(18.0899 -0.02039 0)
(18.0689 -0.0120278 0)
(18.0572 -0.00631537 0)
(18.0548 -0.0027121 0)
(18.0605 -0.000493807 0)
(18.0724 0.000736453 0)
(18.088 0.0010794 0)
(18.1041 0.00100907 0)
(18.1172 0.000982523 0)
(18.1226 0.00112358 0)
(18.1168 0.00104098 0)
(18.0988 0.000970721 0)
(18.068 0.00112363 0)
(18.0237 0.0010502 0)
(17.9645 0.00134201 0)
(17.8993 0.0010332 0)
(17.8236 0.00165151 0)
(19.7265 -0.569376 0)
(19.6754 -0.492348 0)
(19.6497 -0.39557 0)
(19.6487 -0.308236 0)
(19.6561 -0.237726 0)
(19.6599 -0.181328 0)
(19.6564 -0.137326 0)
(19.6443 -0.104989 0)
(19.6221 -0.0837122 0)
(19.5889 -0.0727896 0)
(19.5454 -0.0694201 0)
(19.4931 -0.0690166 0)
(19.4333 -0.0687849 0)
(19.3671 -0.0680989 0)
(19.2956 -0.0667763 0)
(19.2195 -0.0644353 0)
(19.1394 -0.0605941 0)
(19.0549 -0.0556831 0)
(18.9648 -0.0498017 0)
(18.8672 -0.0429482 0)
(18.759 -0.0359183 0)
(18.6368 -0.0289084 0)
(18.4974 -0.0214349 0)
(18.3497 -0.0142301 0)
(18.1924 -0.00809707 0)
(18.0249 -0.00263791 0)
(17.8471 0.00184433 0)
(17.6589 0.00599519 0)
(17.4697 0.00633988 0)
(17.2734 0.00262332 0)
(19.841 -0.476725 0)
(19.817 -0.419599 0)
(19.8054 -0.346064 0)
(19.8099 -0.27189 0)
(19.8235 -0.206291 0)
(19.8376 -0.149993 0)
(19.8479 -0.101184 0)
(19.8523 -0.0578788 0)
(19.8485 -0.0193178 0)
(19.8359 0.0124836 0)
(19.815 0.0352787 0)
(19.7858 0.0503755 0)
(19.7464 0.0591114 0)
(19.6945 0.0637364 0)
(19.6283 0.0653289 0)
(19.5454 0.0644008 0)
(19.4435 0.0618691 0)
(19.3194 0.0586033 0)
(19.1698 0.0545744 0)
(18.9908 0.0497237 0)
(18.7783 0.0455733 0)
(18.5289 0.0424015 0)
(18.244 0.0406786 0)
(17.9495 0.0403802 0)
(17.6487 0.0404847 0)
(17.345 0.0411589 0)
(17.0413 0.042602 0)
(16.7395 0.0438721 0)
(16.4498 0.0424149 0)
(16.1576 0.0295524 0)
(19.8575 -0.595119 0)
(19.8316 -0.537046 0)
(19.8095 -0.466093 0)
(19.795 -0.391497 0)
(19.7858 -0.324501 0)
(19.7776 -0.270277 0)
(19.767 -0.22953 0)
(19.7512 -0.19958 0)
(19.7259 -0.17776 0)
(19.6873 -0.161376 0)
(19.6343 -0.146495 0)
(19.5663 -0.134151 0)
(19.4791 -0.124109 0)
(19.3701 -0.113592 0)
(19.2359 -0.103122 0)
(19.0739 -0.0914668 0)
(18.8814 -0.0785293 0)
(18.6553 -0.0652784 0)
(18.3927 -0.052525 0)
(18.0918 -0.0408837 0)
(17.7512 -0.0295085 0)
(17.371 -0.0187894 0)
(16.9586 -0.00964659 0)
(16.5529 -0.00175231 0)
(16.1587 0.00597036 0)
(15.7794 0.0128675 0)
(15.4175 0.018882 0)
(15.073 0.024586 0)
(14.7537 0.0212003 0)
(14.4167 0.00173565 0)
(19.6738 -0.30247 0)
(19.6064 -0.255302 0)
(19.5298 -0.198841 0)
(19.4485 -0.13081 0)
(19.3615 -0.060817 0)
(19.2684 0.00599819 0)
(19.1679 0.0666833 0)
(19.0581 0.116637 0)
(18.9352 0.153377 0)
(18.7882 0.180206 0)
(18.6148 0.200786 0)
(18.4144 0.216068 0)
(18.1893 0.226482 0)
(17.939 0.230488 0)
(17.663 0.231341 0)
(17.3618 0.231046 0)
(17.0353 0.230019 0)
(16.6835 0.227655 0)
(16.3072 0.224453 0)
(15.9071 0.220939 0)
(15.4845 0.216649 0)
(15.0412 0.211513 0)
(14.5845 0.204405 0)
(14.1535 0.197339 0)
(13.7506 0.192118 0)
(13.376 0.187517 0)
(13.029 0.183543 0)
(12.7053 0.178708 0)
(12.4148 0.177683 0)
(12.0694 0.116502 0)
(18.4701 -0.740669 0)
(18.2535 -0.661688 0)
(18.0306 -0.589054 0)
(17.8034 -0.526038 0)
(17.5645 -0.468634 0)
(17.3168 -0.416763 0)
(17.0441 -0.367914 0)
(16.7484 -0.32713 0)
(16.4341 -0.296375 0)
(16.1139 -0.27205 0)
(15.7888 -0.253124 0)
(15.4592 -0.237828 0)
(15.1236 -0.225252 0)
(14.7815 -0.216387 0)
(14.4307 -0.207766 0)
(14.0687 -0.199014 0)
(13.6944 -0.190075 0)
(13.3075 -0.18039 0)
(12.9087 -0.170224 0)
(12.4995 -0.160015 0)
(12.0816 -0.149787 0)
(11.657 -0.14003 0)
(11.2288 -0.130637 0)
(10.8321 -0.121187 0)
(10.4719 -0.112519 0)
(10.1452 -0.105304 0)
(9.84916 -0.0994696 0)
(9.57617 -0.0919822 0)
(9.34744 -0.100081 0)
(8.96474 -0.0810532 0)
(14.754 0.449913 0)
(14.3441 0.452695 0)
(13.9321 0.483562 0)
(13.538 0.5316 0)
(13.159 0.591521 0)
(12.7955 0.655253 0)
(12.4666 0.710368 0)
(12.1683 0.755287 0)
(11.8933 0.789791 0)
(11.6314 0.811755 0)
(11.368 0.823409 0)
(11.0958 0.826716 0)
(10.8099 0.823461 0)
(10.5084 0.817171 0)
(10.1895 0.806487 0)
(9.85332 0.79215 0)
(9.50146 0.775185 0)
(9.13717 0.756178 0)
(8.76405 0.735442 0)
(8.38586 0.713429 0)
(8.00578 0.690076 0)
(7.62764 0.665775 0)
(7.24737 0.635332 0)
(6.89691 0.605088 0)
(6.5904 0.582789 0)
(6.31957 0.562894 0)
(6.08111 0.546007 0)
(5.85377 0.524255 0)
(5.72868 0.54235 0)
(5.2858 0.341317 0)
)
;

boundaryField
{
    walls
    {
        type            noSlip;
    }
    topInlet
    {
        type            fixedValue;
        value           uniform (19.9726 -1.0467 0);
    }
    bottomInlet
    {
        type            fixedValue;
        value           uniform (19.9726 1.0467 0);
    }
    outlet
    {
        type            zeroGradient;
    }
    frontBack
    {
        type            empty;
    }
}


// ************************************************************************* //
