/*--------------------------------*- C++ -*----------------------------------*\
| =========                 |                                                 |
| \\      /  F ield         | OpenFOAM: The Open Source CFD Toolbox           |
|  \\    /   O peration     | Version:  4.x                                   |
|   \\  /    A nd           | Web:      www.OpenFOAM.org                      |
|    \\/     M anipulation  |                                                 |
\*---------------------------------------------------------------------------*/
FoamFile
{
    version     2.0;
    format      ascii;
    class       surfaceScalarField;
    location    "0.15";
    object      alphaPhi;
}
// * * * * * * * * * * * * * * * * * * * * * * * * * * * * * * * * * * * * * //

dimensions      [0 3 -1 0 0 0 0];

internalField   nonuniform List<scalar> 
370
(
1.72394e-80
-2.11739e-101
1.2177e-72
-2.33042e-91
1.30914e-65
-2.4843e-82
2.59328e-59
-3.14853e-74
1.10828e-53
-5.72111e-67
1.16817e-48
-1.77567e-60
3.44038e-44
-1.11239e-54
3.13844e-40
-1.6113e-49
9.88221e-37
-6.22499e-45
-7.21929e-41
7.37968e-100
-1.16073e-113
6.80222e-90
-1.00351e-102
6.18877e-81
-7.40601e-93
6.76942e-73
-6.00843e-84
1.06887e-65
-7.442e-76
2.89362e-59
-1.57212e-68
1.58698e-53
-6.46247e-62
2.01408e-48
-5.7087e-56
6.82461e-44
-1.22544e-50
-7.07065e-46
1.82212e-111
6.54554e-114
9.70804e-101
1.16889e-103
5.16641e-91
-4.22592e-98
3.23031e-82
-9.92306e-89
3.20716e-74
-2.42085e-80
5.57145e-67
-9.9654e-73
1.91365e-60
-7.4371e-66
1.42329e-54
-1.27361e-59
2.58823e-49
-5.56013e-54
-6.74981e-49
1.26654e-112
8.0532e-115
2.08895e-102
1.0428e-104
3.7054e-95
1.39527e-97
2.78974e-86
7.2039e-89
3.92133e-78
5.47617e-81
1.09208e-70
8.90904e-75
6.0115e-64
-6.74159e-68
7.84059e-58
-2.32038e-61
2.67285e-52
-1.45724e-55
-2.35827e-50
1.29143e-113
9.69036e-116
1.52013e-103
1.00253e-105
8.40825e-96
4.9836e-98
3.5817e-87
1.94159e-89
3.66505e-79
1.83911e-81
7.39596e-72
3.42712e-74
4.97162e-65
2.12327e-67
7.39126e-59
2.77723e-61
2.73207e-53
8.26721e-56
5.47786e-51
1.76189e-114
1.74796e-116
-6.10581e-105
-5.74966e-107
-2.00313e-94
-1.82641e-96
-1.58547e-85
-1.41598e-87
-1.08913e-77
-9.58594e-80
-1.01668e-70
-8.81811e-73
-1.01316e-64
-8.65754e-67
1.2774e-58
1.0627e-60
7.0752e-53
5.63052e-55
5.58802e-50
-1.9048e-108
-2.2881e-110
-4.08985e-98
-4.60584e-100
-7.93492e-89
-8.41725e-91
-1.69183e-80
-1.69012e-82
-3.56961e-73
-3.34695e-75
-1.28164e-66
-1.12121e-68
-9.87814e-61
-8.03538e-63
-1.35297e-55
-1.01575e-57
-4.2656e-51
-2.92447e-53
-1.7605e-49
-2.28795e-97
-3.5597e-99
-4.1405e-89
-5.89268e-91
-1.7085e-81
-2.248e-83
-1.6472e-74
-2.009e-76
-3.08439e-68
-3.47349e-70
-1.65476e-62
-1.70568e-64
-3.0538e-57
-2.87033e-59
-1.41079e-52
-1.19938e-54
-2.1613e-48
-1.64164e-50
-8.62462e-47
-6.34759e-93
-8.81823e-95
-1.52847e-85
-1.97192e-87
-1.40661e-78
-1.71387e-80
-4.62057e-72
-5.32328e-74
-4.05863e-66
-4.36775e-68
-1.30021e-60
-1.27895e-62
-1.80088e-55
-1.60519e-57
-6.53677e-51
-5.19987e-53
-9.75113e-47
-6.77256e-49
-4.5816e-45
-1.57001e-91
-1.24868e-93
-2.34089e-84
-1.9177e-86
-1.47087e-77
-1.26741e-79
-3.66239e-71
-3.2521e-73
-2.63339e-65
-2.29755e-67
-7.51945e-60
-6.0471e-62
-9.94648e-55
-7.19499e-57
-3.41563e-50
-2.13884e-52
-5.06163e-46
-2.59472e-48
-1.51683e-44
0.000126406
-1.92723e-06
0.000128005
-1.59878e-06
0.000129291
-1.28636e-06
0.000130316
-1.02424e-06
0.00013116
-8.44259e-07
0.000131921
-7.60881e-07
0.000132634
-7.12669e-07
0.000133334
-7.00481e-07
0.000134055
-7.20677e-07
-8.35431e-07
0.000293177
-8.09099e-06
0.000298806
-7.22753e-06
0.000303974
-6.45532e-06
0.000308735
-5.78501e-06
0.000313128
-5.23728e-06
0.000317185
-4.81803e-06
0.00032093
-4.45756e-06
0.000324376
-4.14582e-06
0.000327527
-3.87188e-06
-3.69094e-06
0.000654127
-1.73004e-05
0.000662821
-1.59224e-05
0.00067103
-1.4664e-05
0.000678776
-1.35307e-05
0.000686084
-1.25455e-05
0.000692972
-1.17062e-05
0.000699449
-1.09346e-05
0.000705504
-1.02002e-05
0.000711116
-9.48468e-06
-8.82706e-06
0.00159627
-1.32172e-05
0.00159266
-1.23116e-05
0.00158967
-1.16744e-05
0.00158741
-1.12709e-05
0.00158595
-1.10917e-05
0.00158532
-1.10727e-05
0.00158545
-1.10675e-05
0.00158621
-1.09606e-05
0.00158742
-1.06868e-05
-1.02092e-05
0.00152501
-9.50769e-06
0.00152066
-7.96049e-06
0.00151576
-6.77527e-06
0.0015104
-5.90701e-06
0.00150464
-5.3401e-06
0.00149855
-4.9835e-06
0.00149215
-4.65887e-06
0.00148534
-4.15565e-06
0.00147802
-3.36776e-06
-2.18916e-06
0.00154696
-7.61892e-06
0.00154431
-5.31481e-06
0.00154076
-3.2217e-06
0.00153617
-1.3195e-06
0.00153039
4.42818e-07
0.00152322
2.18327e-06
0.00151444
4.12288e-06
0.0015038
6.47695e-06
0.00149104
9.39962e-06
1.30448e-05
0.00153139
-2.98847e-06
0.00152537
7.04643e-07
0.00151778
4.37639e-06
0.00150832
8.13476e-06
0.00149681
1.19552e-05
0.00148303
1.5961e-05
0.00146677
2.03882e-05
0.00144775
2.54916e-05
0.00142581
3.1338e-05
3.80135e-05
0.00144686
1.15893e-05
0.00143029
1.72761e-05
0.00141182
2.28442e-05
0.00139127
2.86901e-05
0.0013688
3.44231e-05
0.00134434
4.04232e-05
0.00131789
4.68407e-05
0.0012895
5.38763e-05
0.00125923
6.16113e-05
7.01014e-05
0.00122132
3.71357e-05
0.00119537
4.32287e-05
0.00116886
4.93464e-05
0.00114186
5.56924e-05
0.00111403
6.22516e-05
0.00108529
6.91626e-05
0.00105559
7.65466e-05
0.00102493
8.45385e-05
0.000993385
9.31519e-05
0.00010239
0.000878082
0.000856311
0.000833394
0.000809198
0.000783645
0.000756802
0.000728851
0.000700064
0.000670726
)
;

boundaryField
{
    walls
    {
        type            calculated;
        value           nonuniform List<scalar> 
20
(
1.10066e-81
8.93108e-74
1.09773e-66
2.47716e-60
1.20256e-54
1.43714e-49
4.78845e-45
4.93669e-41
1.75485e-37
2.37479e-34
5.80695e-05
6.49989e-05
7.22636e-05
7.98891e-05
8.78042e-05
9.60057e-05
0.000104497
0.000113325
0.00012249
0.000132004
)
;
    }
    topInlet
    {
        type            calculated;
        value           nonuniform 0();
    }
    bottomInlet
    {
        type            calculated;
        value           nonuniform 0();
    }
    outlet
    {
        type            calculated;
        value           nonuniform 0();
    }
    frontBack
    {
        type            empty;
        value           nonuniform 0();
    }
    procBoundary2to1
    {
        type            processor;
        value           nonuniform List<scalar> 
20
(
-2.96389e-89
-6.33023e-111
-5.79146e-123
-6.74471e-124
-8.87622e-125
-1.54093e-125
1.19782e-119
3.51638e-106
9.88857e-101
4.40017e-99
-0.000124475
-0.000287013
-0.000644917
-0.00160035
-0.00152872
-0.00154884
-0.00153602
-0.00146144
-0.00124686
-0.000899016
)
;
    }
    procBoundary2to3
    {
        type            processor;
        value           nonuniform List<scalar> 
20
(
1.18518e-33
6.94405e-40
1.26874e-44
2.57137e-47
2.86931e-48
7.6191e-48
-2.8755e-47
-1.31167e-44
-8.0701e-43
-4.45793e-42
0.00013489
0.000330382
0.000716253
0.0015888
0.00147
0.0014758
0.00140085
0.00122714
0.000961096
0.000641112
)
;
    }
}


// ************************************************************************* //
