/*--------------------------------*- C++ -*----------------------------------*\
| =========                 |                                                 |
| \\      /  F ield         | OpenFOAM: The Open Source CFD Toolbox           |
|  \\    /   O peration     | Version:  4.x                                   |
|   \\  /    A nd           | Web:      www.OpenFOAM.org                      |
|    \\/     M anipulation  |                                                 |
\*---------------------------------------------------------------------------*/
FoamFile
{
    version     2.0;
    format      ascii;
    class       volScalarField;
    location    "0.15";
    object      epsilon;
}
// * * * * * * * * * * * * * * * * * * * * * * * * * * * * * * * * * * * * * //

dimensions      [0 2 -3 0 0 0 0];

internalField   nonuniform List<scalar> 
200
(
24801.6
23731.4
22699.7
21675.9
20642.6
19593.6
18530.1
17459.1
16391
15338.5
3847.15
3739.74
3632.67
3524.54
3414.02
3300.45
3183.76
3064.03
2941.9
2818
619.703
622.401
628.646
636.892
646.438
656.774
667.669
678.876
690.134
701.041
119.498
117.664
117.315
118.812
121.999
126.784
133.091
141.009
150.701
162.341
37.6176
36.4546
35.2297
34.1158
33.2532
32.7515
32.7849
33.4356
34.8054
37.0368
24.0019
22.3969
20.8402
19.3499
17.9449
16.6451
15.4797
14.48
13.6855
13.1464
20.2517
17.9457
16.0129
14.3491
12.8794
11.553
10.3395
9.22517
8.20972
7.30362
16.4868
13.3607
11.1554
9.54257
8.31635
7.34532
6.54515
5.86187
5.26243
4.72876
13.9518
11.0952
9.16465
7.81174
6.82537
6.07331
5.47106
4.96421
4.5188
4.11557
13.4583
10.673
8.80396
7.50402
6.56383
5.8525
5.28623
4.81102
4.39301
4.01302
13.4259
10.6452
8.77966
7.4826
6.54498
5.83611
5.27219
4.7992
4.38329
4.00528
13.8132
10.9757
9.06007
7.71951
6.74423
6.00275
5.41059
4.91331
4.47687
4.08212
16.1669
13.0737
10.8974
9.31077
8.10954
7.16331
6.38754
5.72798
5.15122
4.6393
20.0029
17.6965
15.765
14.1045
12.641
11.3248
10.1261
9.03111
8.03897
7.15993
24.0819
22.4394
20.8545
19.3446
17.9291
16.6315
15.4751
14.4875
13.7056
13.1807
37.6969
36.5094
35.293
34.2074
33.3993
33.0157
33.1288
33.8206
35.1987
37.4128
120.455
118.843
119.032
120.859
124.187
128.92
135.099
142.828
152.274
163.648
633.56
636.72
642.463
649.925
658.522
667.901
677.834
688.103
698.468
708.608
3942.14
3830
3718.69
3606.43
3492.23
3375.12
3254.6
3130.66
3003.81
2874.79
25495
24404.1
23348.9
22299.4
21237.5
20154.4
19050.5
17934
16817
15712.7
)
;

boundaryField
{
    walls
    {
        Cmu             0.09;
        kappa           0.41;
        E               9.8;
        type            epsilonWallFunction;
        value           nonuniform List<scalar> 
20
(
24801.6
23731.4
22699.7
21675.9
20642.6
19593.6
18530.1
17459.1
16391
15338.5
25495
24404.1
23348.9
22299.4
21237.5
20154.4
19050.5
17934
16817
15712.7
)
;
    }
    topInlet
    {
        type            fixedValue;
        value           nonuniform 0();
    }
    bottomInlet
    {
        type            fixedValue;
        value           nonuniform 0();
    }
    outlet
    {
        type            zeroGradient;
    }
    frontBack
    {
        type            empty;
    }
    procBoundary2to1
    {
        type            processor;
        value           nonuniform List<scalar> 
20
(
25953.1
3955.31
622.701
122.164
38.5436
25.6363
23.0705
21.0717
18.3356
17.7631
17.7244
18.1715
20.7153
22.8248
25.7636
38.666
123.051
635.125
4055.56
26663.1
)
;
    }
    procBoundary2to3
    {
        type            processor;
        value           nonuniform List<scalar> 
20
(
14312.4
2693.2
711.134
176.11
40.3315
12.9331
6.52693
4.25484
3.74702
3.66346
3.6576
3.72159
4.1862
6.41367
12.9851
40.6745
177.173
718.105
2744.42
14632.4
)
;
    }
}


// ************************************************************************* //
