/*--------------------------------*- C++ -*----------------------------------*\
| =========                 |                                                 |
| \\      /  F ield         | OpenFOAM: The Open Source CFD Toolbox           |
|  \\    /   O peration     | Version:  4.x                                   |
|   \\  /    A nd           | Web:      www.OpenFOAM.org                      |
|    \\/     M anipulation  |                                                 |
\*---------------------------------------------------------------------------*/
FoamFile
{
    version     2.0;
    format      ascii;
    class       surfaceScalarField;
    location    "0.15";
    object      phi;
}
// * * * * * * * * * * * * * * * * * * * * * * * * * * * * * * * * * * * * * //

dimensions      [0 3 -1 0 0 0 0];

internalField   nonuniform List<scalar> 
370
(
0.00087831
-3.50805e-05
0.000856483
-4.09902e-05
0.000833545
-4.6956e-05
0.000809371
-5.31391e-05
0.000783965
-5.96602e-05
0.000757422
-6.66386e-05
0.000729884
-7.405e-05
0.000701613
-8.20903e-05
0.000672884
-9.07602e-05
-0.000100154
0.00122265
-9.22216e-06
0.00119645
-1.47939e-05
0.00116975
-2.02504e-05
0.0011425
-2.5894e-05
0.00111462
-3.17807e-05
0.00108594
-3.79576e-05
0.00105643
-4.45366e-05
0.0010261
-5.17644e-05
0.000995027
-5.96847e-05
-6.84874e-05
0.0014477
5.20053e-06
0.00143118
1.7232e-06
0.00141266
-1.73153e-06
0.00139214
-5.36747e-06
0.0013696
-9.24583e-06
0.00134519
-1.35416e-05
0.00131881
-1.81599e-05
0.00129058
-2.35385e-05
0.00126059
-2.96921e-05
-3.682e-05
0.0015316
9.73852e-06
0.00152571
7.61634e-06
0.00151826
5.71699e-06
0.00150899
3.89665e-06
0.00149766
2.09149e-06
0.00148399
1.21062e-07
0.00146789
-2.0556e-06
0.00144908
-4.7264e-06
0.00142735
-7.96368e-06
-1.21483e-05
0.00154741
1.16111e-05
0.00154484
1.01883e-05
0.00154142
9.13602e-06
0.00153698
8.33177e-06
0.00153139
7.68443e-06
0.00152445
7.06394e-06
0.00151592
6.47413e-06
0.00150553
5.65696e-06
0.00149305
4.51795e-06
2.82183e-06
0.00152676
1.51468e-05
0.00152261
1.4338e-05
0.00151791
1.384e-05
0.00151273
1.35102e-05
0.00150715
1.32652e-05
0.00150119
1.30205e-05
0.00149489
1.2774e-05
0.00148817
1.23803e-05
0.0014809
1.17852e-05
1.08027e-05
0.00160152
1.92379e-05
0.00159786
1.79945e-05
0.00159478
1.69172e-05
0.00159238
1.59077e-05
0.00159073
1.49151e-05
0.00158985
1.39084e-05
0.00158969
1.29313e-05
0.00159013
1.1938e-05
0.00159101
1.09078e-05
9.7473e-06
0.000655975
1.02059e-05
0.000664513
9.45721e-06
0.00067258
8.84962e-06
0.000680192
8.29594e-06
0.000687366
7.7408e-06
0.00069412
7.1548e-06
0.000700467
6.58384e-06
0.0007064
6.00541e-06
0.0007119
5.40733e-06
4.71407e-06
0.000293501
4.07739e-06
0.0002991
3.85876e-06
0.000304242
3.707e-06
0.000308979
3.55969e-06
0.000313347
3.37213e-06
0.00031738
3.12192e-06
0.000321102
2.8621e-06
0.000324526
2.58154e-06
0.000327657
2.27572e-06
1.8763e-06
0.000135391
1.07681e-06
0.000138118
1.13149e-06
0.000140614
1.21162e-06
0.000142905
1.26895e-06
0.000145011
1.26518e-06
0.000146952
1.18178e-06
0.000148738
1.07592e-06
0.000150378
9.41655e-07
0.000151875
7.7855e-07
5.21371e-07
0.000135357
-1.92723e-06
0.000138088
-1.59878e-06
0.000140586
-1.28636e-06
0.000142879
-1.02424e-06
0.000144988
-8.44259e-07
0.000146931
-7.60881e-07
0.00014872
-7.12669e-07
0.000150362
-7.00481e-07
0.000151861
-7.20677e-07
-8.35431e-07
0.000293177
-8.09099e-06
0.000298806
-7.22753e-06
0.000303974
-6.45532e-06
0.000308735
-5.78501e-06
0.000313128
-5.23728e-06
0.000317185
-4.81803e-06
0.00032093
-4.45756e-06
0.000324376
-4.14582e-06
0.000327527
-3.87188e-06
-3.69094e-06
0.000654127
-1.73004e-05
0.000662821
-1.59224e-05
0.00067103
-1.4664e-05
0.000678776
-1.35307e-05
0.000686084
-1.25455e-05
0.000692972
-1.17062e-05
0.000699449
-1.09346e-05
0.000705504
-1.02002e-05
0.000711116
-9.48468e-06
-8.82706e-06
0.00159627
-1.32172e-05
0.00159266
-1.23116e-05
0.00158967
-1.16744e-05
0.00158741
-1.12709e-05
0.00158595
-1.10917e-05
0.00158532
-1.10727e-05
0.00158545
-1.10675e-05
0.00158621
-1.09606e-05
0.00158742
-1.06868e-05
-1.02092e-05
0.00152501
-9.50769e-06
0.00152066
-7.96049e-06
0.00151576
-6.77527e-06
0.0015104
-5.90701e-06
0.00150464
-5.3401e-06
0.00149855
-4.9835e-06
0.00149215
-4.65887e-06
0.00148534
-4.15565e-06
0.00147802
-3.36776e-06
-2.18916e-06
0.00154696
-7.61892e-06
0.00154431
-5.31481e-06
0.00154076
-3.2217e-06
0.00153617
-1.3195e-06
0.00153039
4.42818e-07
0.00152322
2.18327e-06
0.00151444
4.12288e-06
0.0015038
6.47695e-06
0.00149104
9.39962e-06
1.30448e-05
0.00153139
-2.98847e-06
0.00152537
7.04643e-07
0.00151778
4.37639e-06
0.00150832
8.13476e-06
0.00149681
1.19552e-05
0.00148303
1.5961e-05
0.00146677
2.03882e-05
0.00144775
2.54916e-05
0.00142581
3.1338e-05
3.80135e-05
0.00144686
1.15893e-05
0.00143029
1.72761e-05
0.00141182
2.28442e-05
0.00139127
2.86901e-05
0.0013688
3.44231e-05
0.00134434
4.04232e-05
0.00131789
4.68407e-05
0.0012895
5.38763e-05
0.00125923
6.16113e-05
7.01014e-05
0.00122132
3.71357e-05
0.00119537
4.32287e-05
0.00116886
4.93464e-05
0.00114186
5.56924e-05
0.00111403
6.22516e-05
0.00108529
6.91626e-05
0.00105559
7.65466e-05
0.00102493
8.45385e-05
0.000993385
9.31519e-05
0.00010239
0.000878082
0.000856311
0.000833394
0.000809198
0.000783645
0.000756802
0.000728851
0.000700064
0.000670726
)
;

boundaryField
{
    walls
    {
        type            calculated;
        value           nonuniform List<scalar> 
20
(
5.60764e-05
6.28175e-05
6.98936e-05
7.73131e-05
8.50661e-05
9.31814e-05
0.000101588
0.000110362
0.000119489
0.000129041
5.80695e-05
6.49989e-05
7.22636e-05
7.98891e-05
8.78042e-05
9.60057e-05
0.000104497
0.000113325
0.00012249
0.000132004
)
;
    }
    topInlet
    {
        type            calculated;
        value           nonuniform 0();
    }
    bottomInlet
    {
        type            calculated;
        value           nonuniform 0();
    }
    outlet
    {
        type            calculated;
        value           nonuniform 0();
    }
    frontBack
    {
        type            empty;
        value           nonuniform 0();
    }
    procBoundary2to1
    {
        type            processor;
        value           nonuniform List<scalar> 
20
(
-0.000899306
-0.00124851
-0.00146212
-0.00153614
-0.00154928
-0.0015303
-0.00160561
-0.000646943
-0.000287373
-0.000132391
-0.000132353
-0.000287013
-0.000644917
-0.00160035
-0.00152872
-0.00154884
-0.00153602
-0.00146144
-0.00124686
-0.000899016
)
;
    }
    procBoundary2to3
    {
        type            processor;
        value           nonuniform List<scalar> 
20
(
0.000643998
0.000963359
0.00122892
0.00140268
0.00147808
0.00147292
0.00159206
0.000716934
0.000330495
0.00015323
0.000153218
0.000330382
0.000716253
0.0015888
0.00147
0.0014758
0.00140085
0.00122714
0.000961096
0.000641112
)
;
    }
}


// ************************************************************************* //
