/*--------------------------------*- C++ -*----------------------------------*\
| =========                 |                                                 |
| \\      /  F ield         | OpenFOAM: The Open Source CFD Toolbox           |
|  \\    /   O peration     | Version:  4.x                                   |
|   \\  /    A nd           | Web:      www.OpenFOAM.org                      |
|    \\/     M anipulation  |                                                 |
\*---------------------------------------------------------------------------*/
FoamFile
{
    version     2.0;
    format      ascii;
    class       surfaceScalarField;
    location    "0.5";
    object      alphaPhi;
}
// * * * * * * * * * * * * * * * * * * * * * * * * * * * * * * * * * * * * * //

dimensions      [0 3 -1 0 0 0 0];

internalField   nonuniform List<scalar> 
1530
(
0
0
0
0
0
0
0
0
0
0
0
0
0
0
0
0
0
0
0
0
0
0
0
0
0
0
0
0
0
0
0
0
0
0
0
0
0
0
0
0
0
0
0
0
0
0
0
0
0
0
0
0
0
0
0
0
0
0
0
0
0
0
0
0
0
0
0
0
0
0
0
0
0
0
0
0
0
0
0
0
0
0
0
0
0
0
0
0
0
0
0
0
0
0
0
0
0
0
0
0
0
0
0
0
0
0
0
0
0
0
0
0
0
0
0
0
0
0
0
0
0
0
0
0
0
0
0
0
0
0
0
0
0
0
0
0
0
0
0
0
0
0
0
0
0
0
0
0
0
0
0
0
0
0
0
0
0
0
0
0
0
0
0
0
0
0
0
0
0
0
0
0
0
0
0
0
0
0
0
0
0
0
0
0
0
0
0
0
0
9.38358e-262
7.04476e-05
-0.000158748
4.49239e-05
-0.000134881
3.40074e-05
-0.000103928
2.82084e-05
-8.50681e-05
2.46694e-05
-7.38596e-05
2.21414e-05
-6.6404e-05
2.00317e-05
-6.01041e-05
1.80295e-05
-5.3074e-05
1.60998e-05
-4.0766e-05
-2.3385e-05
4.19753e-05
0.000279033
-6.75482e-05
0.000223887
-7.97348e-05
0.000189918
-6.9959e-05
0.00016771
-6.28598e-05
0.000152412
-5.85611e-05
0.000140627
-5.46193e-05
0.000130474
-4.99517e-05
0.000121285
-4.38846e-05
0.000116087
-3.55678e-05
-4.51497e-05
0.000137852
0.000778393
-4.68838e-05
0.00074094
-4.22821e-05
0.000706506
-3.55252e-05
0.00067149
-2.78432e-05
0.000637392
-2.44637e-05
0.000605346
-2.25731e-05
0.000575652
-2.02575e-05
0.000549463
-1.76958e-05
0.000531816
-1.79207e-05
-3.50855e-05
0.000521752
0.00173007
-5.05502e-05
0.00172577
-3.79838e-05
0.00172187
-3.16277e-05
0.00171837
-2.43426e-05
0.00171258
-1.86743e-05
0.00170445
-1.44428e-05
0.00169488
-1.06808e-05
0.00168476
-7.57511e-06
0.00167363
-6.79811e-06
-1.1448e-05
0.00165
0.00154247
-5.25271e-05
0.00154413
-3.9639e-05
0.00154475
-3.22541e-05
0.00154622
-2.5807e-05
0.00154755
-2.0011e-05
0.00154831
-1.5202e-05
0.00154877
-1.11367e-05
0.00154904
-7.8459e-06
0.00154808
-5.8406e-06
-5.5287e-06
0.00154216
0.001545
-5.3693e-05
0.00154658
-4.12139e-05
0.00154749
-3.31661e-05
0.00154877
-2.70889e-05
0.00155023
-2.1467e-05
0.00155145
-1.64274e-05
0.00155242
-1.20998e-05
0.00155302
-8.45044e-06
0.00155273
-5.5544e-06
-3.41631e-06
0.00155062
0.00154775
-5.46707e-05
0.00154885
-4.2307e-05
0.00154953
-3.3845e-05
0.00155043
-2.79925e-05
0.00155155
-2.25903e-05
0.0015527
-1.75725e-05
0.00155378
-1.3183e-05
0.00155456
-9.22799e-06
0.00155408
-5.07732e-06
-1.16507e-06
0.00155183
0.00155061
-5.59035e-05
0.00155057
-4.22663e-05
0.00154995
-3.32239e-05
0.00154903
-2.70751e-05
0.00154763
-2.11842e-05
0.00154596
-1.59108e-05
0.00154422
-1.14355e-05
0.00154245
-7.46249e-06
0.00154075
-3.37309e-06
3.47236e-07
0.00153923
0.00154854
-5.32483e-05
0.00154115
-3.48761e-05
0.0015335
-2.55715e-05
0.00152472
-1.82975e-05
0.00151424
-1.0706e-05
0.00150317
-4.84394e-06
0.00149106
6.81856e-07
0.0014779
5.68986e-06
0.00146428
1.02507e-05
1.49908e-05
0.00144964
0.00147754
0.00142081
0.00137308
0.00133048
0.00129292
0.00125935
0.00122984
0.00120424
0.00118257
0.00116695
0
0
0
0
0
0
0
0
0
0
0
0
0
0
0
0
5.7817e-307
0
1.20124e-274
0
1.42952e-245
-1.5935e-318
2.23806e-219
-7.97326e-285
8.71823e-196
-1.99734e-254
1.45959e-174
-4.44228e-227
1.66224e-155
-1.56954e-202
1.90497e-138
-1.56e-180
3.24693e-123
-7.48972e-161
1.11902e-109
-2.67963e-143
1.08748e-97
-1.13181e-127
4.03388e-87
-8.31103e-114
8.20927e-78
-1.66364e-101
1.17184e-69
-1.24286e-90
4.79459e-63
-6.00007e-82
7.51172e-60
-1.63047e-78
3.78183e-57
-1.48895e-75
9.43175e-55
-7.08317e-73
5.81383e-26
-7.45688e-26
5.98415e-25
-7.07058e-25
2.87036e-24
-3.16456e-24
-3.32021e-24
0
0
0
0
0
0
0
0
0
0
0
0
0
0
0
0
0
0
0
0
5.55377e-317
0
2.3273e-283
0
4.97569e-253
-5.08155e-293
9.551e-226
-3.98978e-263
2.93236e-201
-6.82474e-236
2.54218e-179
-3.56639e-211
1.06851e-159
-8.51024e-189
3.34944e-142
-1.26035e-168
1.24083e-126
-1.70427e-150
7.99416e-113
-2.94349e-134
1.4058e-100
-9.94673e-120
9.24891e-90
-8.61337e-107
4.06299e-81
-1.57381e-96
1.10441e-77
-5.66035e-93
9.96818e-75
-7.56129e-90
4.69292e-72
-5.57977e-87
4.89959e-25
-5.64528e-25
4.64824e-24
-4.86534e-24
1.99483e-23
-1.84646e-23
-1.81851e-23
0
0
0
0
0
0
0
0
0
0
0
0
0
0
0
0
0
0
0
0
0
0
4.94066e-324
0
3.54487e-291
-4.18538e-310
2.14503e-261
-1.40213e-279
2.94114e-234
-8.45234e-252
1.2639e-209
-1.98369e-226
2.52003e-187
-1.69174e-203
3.14229e-167
-1.21143e-182
3.59955e-149
-1.06604e-163
5.28174e-133
-1.50669e-146
1.52323e-118
-4.92526e-131
1.13378e-105
-4.47779e-117
1.84782e-95
-5.14799e-106
6.51988e-92
-1.45149e-102
8.44845e-89
-1.8101e-99
6.06584e-86
-1.605e-96
6.00988e-24
-6.57441e-24
5.08012e-23
-4.96566e-23
1.93717e-22
-1.6138e-22
-1.57884e-22
0
0
0
0
0
0
0
0
0
0
0
0
0
0
0
0
0
0
0
0
0
0
0
0
3.66986e-307
1.38188e-309
3.94191e-277
1.01791e-279
1.36912e-249
1.91199e-252
2.17388e-224
1.77342e-228
1.36745e-201
-6.85445e-209
7.45783e-181
-8.18863e-188
5.12465e-162
-9.13938e-169
5.7398e-145
-1.70729e-151
1.50913e-129
-8.10843e-136
1.12153e-115
-1.51728e-121
1.10224e-104
-1.96464e-110
2.93848e-101
-2.50867e-107
3.44259e-98
-1.70943e-104
2.88509e-95
-2.5449e-101
1.12922e-22
-1.19497e-22
8.19731e-22
-7.56466e-22
2.72045e-21
-2.0621e-21
-1.99409e-21
0
0
0
0
0
0
0
0
0
0
0
0
0
0
0
0
0
0
0
0
0
0
0
0
8.57288e-308
5.08117e-310
5.78217e-278
3.13444e-280
9.73646e-251
4.88571e-253
8.06453e-227
3.73693e-229
5.05485e-206
2.15881e-208
2.60838e-185
9.80086e-188
1.71347e-166
5.18495e-169
2.07726e-149
3.96575e-152
6.89036e-134
2.37874e-137
9.43703e-120
-1.86368e-122
9.53976e-109
-1.6201e-111
1.07003e-105
-1.29626e-108
6.45168e-103
-1.04022e-105
8.6102e-100
-1.55882e-102
3.69913e-21
-3.81862e-21
2.16858e-20
-1.87432e-20
6.05644e-20
-4.09407e-20
-3.91357e-20
0
0
0
0
0
0
0
0
0
0
0
0
0
0
0
0
0
0
0
0
0
0
0
0
-2.33973e-307
-2.13332e-309
-2.14695e-277
-1.91744e-279
-1.75895e-250
-1.54814e-252
-4.73732e-226
-4.1089e-228
-2.44627e-204
-2.09036e-206
8.85538e-184
7.36695e-186
4.13301e-165
3.2891e-167
2.41203e-148
1.76904e-150
3.20523e-133
2.06663e-135
1.04982e-119
5.49062e-122
3.67397e-109
1.28463e-111
1.89741e-106
2.74544e-109
1.12351e-103
-1.33622e-105
1.32342e-100
-1.3547e-102
2.70419e-19
-2.74237e-19
1.146e-18
-9.02142e-19
2.54654e-18
-1.48146e-18
-1.25436e-18
0
0
0
0
0
0
0
0
0
0
0
0
0
0
0
0
0
0
0
0
0
0
-4.56764e-320
-5.13828e-322
-3.84412e-289
-4.07778e-291
-3.36089e-261
-3.35748e-263
-4.02244e-236
-3.77153e-238
-1.63756e-213
-1.43257e-215
-4.01779e-193
-3.26827e-195
-6.97049e-175
-5.23312e-177
-1.51669e-158
-1.03983e-160
-5.02086e-144
-3.07399e-146
3.66324e-130
1.94574e-132
1.07224e-116
4.72077e-119
1.11269e-106
3.67702e-109
2.83997e-104
5.78502e-107
3.64979e-102
3.60876e-105
6.61741e-100
1.52889e-104
7.73976e-17
-7.76719e-17
1.82963e-16
-1.46729e-16
2.98045e-16
-2.56396e-16
-2.70834e-16
0
0
0
0
0
0
0
0
0
0
0
0
0
0
0
0
0
0
0
0
-1.56434e-317
-2.43387e-319
-2.10065e-290
-2.9896e-292
-2.63973e-265
-3.47329e-267
-3.87858e-242
-4.73049e-244
-6.5644e-221
-7.39252e-223
-2.20585e-201
-2.27373e-203
-2.00549e-183
-1.885e-185
-4.24757e-167
-3.61104e-169
-3.25982e-152
-2.47604e-154
-1.29265e-138
-8.49959e-141
-2.91929e-126
-1.58996e-128
-2.34492e-115
-9.86498e-118
2.97406e-106
8.39102e-109
3.19413e-106
3.33825e-106
5.56301e-106
3.69413e-105
1.87099e-13
-1.87099e-13
4.77267e-13
-4.45295e-13
8.04989e-13
-7.56729e-13
9.77261e-13
-9.84614e-13
-9.64344e-13
0
0
0
0
0
0
0
0
0
0
0
0
0
0
0
0
0
0
0
0
-1.60369e-305
-2.22788e-307
-5.40948e-281
-6.97891e-283
-6.73206e-258
-8.20259e-260
-2.98396e-236
-3.43777e-238
-3.67922e-216
-3.95945e-218
-1.79669e-197
-1.76732e-199
-4.13087e-180
-3.68199e-182
-2.99053e-164
-2.37891e-166
-1.18246e-149
-8.21266e-152
-4.00497e-136
-2.27372e-138
-8.2853e-124
-3.45693e-126
-2.87687e-112
-7.12546e-115
-1.08215e-102
-7.50157e-106
1.53141e-10
-1.53141e-10
6.39531e-10
-4.89548e-10
1.43889e-09
-8.0964e-10
2.21254e-09
-7.91737e-10
3.06097e-09
-8.67878e-10
3.62581e-09
-5.8489e-10
1.4231e-09
2.41354e-262
8.10722e-262
5.93389e-263
1.82015e-262
1.4764e-263
4.45749e-263
3.61639e-264
1.11476e-263
8.57094e-265
2.7593e-264
1.94286e-265
6.62809e-265
4.17758e-266
1.5251e-265
8.46675e-267
3.3309e-266
1.60909e-267
6.85766e-267
2.85541e-268
1.32355e-267
1.00622e-277
5.08849e-277
1.54065e-278
8.5215e-278
-1.57428e-255
-1.3565e-257
-2.50047e-234
-2.22035e-236
-1.50686e-214
-1.31469e-216
-4.6702e-196
-3.75575e-198
-7.88361e-179
-5.70277e-181
-4.46017e-163
-2.79293e-165
-1.51355e-148
-7.75886e-151
-5.07154e-135
-1.72561e-137
-1.07333e-122
-1.23722e-125
1.29291e-07
-1.29291e-07
4.90483e-07
-3.61192e-07
1.0435e-06
-5.53173e-07
1.79391e-06
-7.50891e-07
2.73267e-06
-9.39559e-07
3.70434e-06
-9.72445e-07
4.70949e-06
-1.006e-06
5.76109e-06
-1.05217e-06
-9.62889e-07
6.75238e-05
-2.55486e-05
8.20948e-05
-1.4571e-05
9.25901e-05
-1.04953e-05
0.000100659
-8.06898e-06
0.000106959
-6.29963e-06
0.000111989
-5.03002e-06
0.000116082
-4.09298e-06
0.000119436
-3.35388e-06
0.000122187
-2.75183e-06
0.000124475
-2.28742e-06
0.000126406
-1.92723e-06
0.000128005
-1.59878e-06
0.000129291
-1.28636e-06
0.000130316
-1.02424e-06
0.00013116
-8.44259e-07
0.000131921
-7.60881e-07
0.000132634
-7.12669e-07
0.000133334
-7.00481e-07
0.000134055
-7.20677e-07
0.00013489
-8.35431e-07
0.000135911
-1.03512e-06
0.000137071
-1.28939e-06
0.000138217
-1.50722e-06
0.000139265
-1.60084e-06
0.000140265
-1.7505e-06
0.00014122
-1.89529e-06
0.000142026
-1.77838e-06
0.000142725
-1.70486e-06
0.00014336
-1.68696e-06
-1.51577e-06
0.000166566
-5.42633e-05
0.000192535
-4.05394e-05
0.000212581
-3.0542e-05
0.000228977
-2.44641e-05
0.000242588
-1.9911e-05
0.000254069
-1.65113e-05
0.000263944
-1.3968e-05
0.000272572
-1.19815e-05
0.000280198
-1.03779e-05
0.000287013
-9.10242e-06
0.000293177
-8.09099e-06
0.000298806
-7.22753e-06
0.000303974
-6.45532e-06
0.000308735
-5.78501e-06
0.000313128
-5.23728e-06
0.000317185
-4.81803e-06
0.00032093
-4.45756e-06
0.000324376
-4.14582e-06
0.000327527
-3.87188e-06
0.000330382
-3.69094e-06
0.000332938
-3.59038e-06
0.000335171
-3.5232e-06
0.000337002
-3.33776e-06
0.000338327
-2.92567e-06
0.000339257
-2.68114e-06
0.000339833
-2.47077e-06
0.000340075
-2.02068e-06
0.000340068
-1.6978e-06
0.000339919
-1.53824e-06
-1.35186e-06
0.000527869
-6.03802e-05
0.000543203
-5.58738e-05
0.000558776
-4.61152e-05
0.000573705
-3.93929e-05
0.000587937
-3.41429e-05
0.000601144
-2.97182e-05
0.000613337
-2.61616e-05
0.000624633
-2.32772e-05
0.000635125
-2.08706e-05
0.000644917
-1.88941e-05
0.000654127
-1.73004e-05
0.000662821
-1.59224e-05
0.00067103
-1.4664e-05
0.000678776
-1.35307e-05
0.000686084
-1.25455e-05
0.000692972
-1.17062e-05
0.000699449
-1.09346e-05
0.000705504
-1.02002e-05
0.000711116
-9.48468e-06
0.000716253
-8.82706e-06
0.000720875
-8.21279e-06
0.000724913
-7.56132e-06
0.000728175
-6.59952e-06
0.000730461
-5.21201e-06
0.000731969
-4.18864e-06
0.000732748
-3.25055e-06
0.000732842
-2.11416e-06
0.000732353
-1.20863e-06
0.000731746
-9.31962e-07
-6.78447e-07
0.00163871
-4.90995e-05
0.00163034
-4.75003e-05
0.00162595
-4.17208e-05
0.00162249
-3.59385e-05
0.00161938
-3.10279e-05
0.00161625
-2.65924e-05
0.00161278
-2.26878e-05
0.00160889
-1.93863e-05
0.00160467
-1.66531e-05
0.00160035
-1.4577e-05
0.00159627
-1.32172e-05
0.00159266
-1.23116e-05
0.00158967
-1.16744e-05
0.00158741
-1.12709e-05
0.00158595
-1.10917e-05
0.00158532
-1.10727e-05
0.00158545
-1.10675e-05
0.00158621
-1.09606e-05
0.00158742
-1.06868e-05
0.0015888
-1.02092e-05
0.00159009
-9.49973e-06
0.00159094
-8.41497e-06
0.00159092
-6.58301e-06
0.00158986
-4.15017e-06
0.00158774
-2.06337e-06
0.00158443
5.09221e-08
0.00157991
2.41049e-06
0.00157413
4.57313e-06
0.00156865
4.54717e-06
3.28551e-06
0.00153869
-4.56288e-05
0.00153611
-4.49169e-05
0.0015355
-4.11091e-05
0.00153568
-3.61233e-05
0.00153587
-3.12148e-05
0.00153579
-2.65176e-05
0.0015352
-2.20961e-05
0.00153388
-1.80647e-05
0.00153172
-1.44878e-05
0.00152872
-1.15802e-05
0.00152501
-9.50769e-06
0.00152066
-7.96049e-06
0.00151576
-6.77527e-06
0.0015104
-5.90701e-06
0.00150464
-5.3401e-06
0.00149855
-4.9835e-06
0.00149215
-4.65887e-06
0.00148534
-4.15565e-06
0.00147802
-3.36776e-06
0.00147
-2.18916e-06
0.00146103
-5.30377e-07
0.00145081
1.80394e-06
0.00143934
4.89327e-06
0.00142742
7.77162e-06
0.00141475
1.06058e-05
0.00140124
1.35547e-05
0.00138697
1.66821e-05
0.00137194
1.96021e-05
0.00135753
1.89624e-05
1.15612e-05
0.00154889
-4.38923e-05
0.00154766
-4.36906e-05
0.00154762
-4.10657e-05
0.00154838
-3.68907e-05
0.00154934
-3.21725e-05
0.00155021
-2.7388e-05
0.00155078
-2.26696e-05
0.00155081
-1.80904e-05
0.00155014
-1.38195e-05
0.00154884
-1.02819e-05
0.00154696
-7.61892e-06
0.00154431
-5.31481e-06
0.00154076
-3.2217e-06
0.00153617
-1.3195e-06
0.00153039
4.42818e-07
0.00152322
2.18327e-06
0.00151444
4.12288e-06
0.0015038
6.47695e-06
0.00149104
9.39962e-06
0.0014758
1.30448e-05
0.00145784
1.74356e-05
0.00143696
2.2679e-05
0.00141381
2.80413e-05
0.00139054
3.10423e-05
0.00136695
3.42039e-05
0.00134321
3.72912e-05
0.00131959
4.03011e-05
0.0012962
4.29943e-05
0.00127401
4.11468e-05
2.33535e-05
0.00155032
-4.23827e-05
0.00154844
-4.18093e-05
0.00154713
-3.97519e-05
0.00154626
-3.603e-05
0.00154554
-3.14523e-05
0.00154477
-2.66128e-05
0.00154376
-2.16583e-05
0.00154217
-1.65037e-05
0.00153963
-1.12811e-05
0.00153602
-6.67418e-06
0.00153139
-2.98847e-06
0.00152537
7.04643e-07
0.00151778
4.37639e-06
0.00150832
8.13476e-06
0.00149681
1.19552e-05
0.00148303
1.5961e-05
0.00146677
2.03882e-05
0.00144775
2.54916e-05
0.00142581
3.1338e-05
0.00140085
3.80135e-05
0.00137277
4.55107e-05
0.00134175
5.37007e-05
0.00130904
6.07459e-05
0.00127778
6.23047e-05
0.00124759
6.44008e-05
0.00121863
6.62512e-05
0.00119105
6.78722e-05
0.00116487
6.91805e-05
0.00113981
6.62078e-05
3.70837e-05
0.00153416
-3.73133e-05
0.00152878
-3.64233e-05
0.00152281
-3.37857e-05
0.00151621
-2.94254e-05
0.00150919
-2.44386e-05
0.00150163
-1.90445e-05
0.00149349
-1.35248e-05
0.00148441
-7.41975e-06
0.00147385
-7.19441e-07
0.00146144
5.73162e-06
0.00144686
1.15893e-05
0.00143029
1.72761e-05
0.00141182
2.28442e-05
0.00139127
2.86901e-05
0.0013688
3.44231e-05
0.00134434
4.04232e-05
0.00131789
4.68407e-05
0.0012895
5.38763e-05
0.00125923
6.16113e-05
0.00122714
7.01014e-05
0.00119335
7.9297e-05
0.00115808
8.89752e-05
0.00112258
9.62443e-05
0.00108999
9.48909e-05
0.00105964
9.47578e-05
0.00103144
9.44513e-05
0.0010053
9.40073e-05
0.000980944
9.3539e-05
0.000956422
9.07293e-05
5.00868e-05
0.00143434
-2.20143e-05
0.00141777
-1.98581e-05
0.00140056
-1.65744e-05
0.001382
-1.08616e-05
0.00136309
-5.53418e-06
0.00134286
1.18588e-06
0.00132066
8.67856e-06
0.00129683
1.64102e-05
0.00127213
2.39767e-05
0.00124686
3.09999e-05
0.00122132
3.71357e-05
0.00119537
4.32287e-05
0.00116886
4.93464e-05
0.00114186
5.56924e-05
0.00111403
6.22516e-05
0.00108529
6.91626e-05
0.00105559
7.65466e-05
0.00102493
8.45385e-05
0.000993385
9.31519e-05
0.000961096
0.00010239
0.000928199
0.000112194
0.000894749
0.000122425
0.000861754
0.00012924
0.00083218
0.000124465
0.00080536
0.000121578
0.000781034
0.000118777
0.000758778
0.000116263
0.000739195
0.000113122
0.000715673
0.000114252
6.60387e-05
0.00113566
0.00110497
0.00107379
0.00104379
0.00101466
0.000987552
0.000962942
0.000940493
0.000919494
0.000899016
0.000878082
0.000856311
0.000833394
0.000809198
0.000783645
0.000756802
0.000728851
0.000700064
0.000670726
0.000641112
0.00061147
0.000581749
0.000552528
0.000526829
0.000504299
0.000484369
0.000466401
0.000451492
0.000429737
)
;

boundaryField
{
    walls
    {
        type            calculated;
        value           nonuniform List<scalar> 
100
(
0
0
0
0
0
0
0
0
0
-3.91166e-263
0
0
0
0
0
0
0
0
0
0
0
0
0
0
0
0
0
0
2.71668e-308
6.62298e-276
9.1269e-247
1.64147e-220
7.31032e-197
1.39424e-175
1.80365e-156
2.34357e-139
4.51921e-124
1.76019e-110
1.93112e-98
8.08286e-88
1.85488e-78
2.98874e-70
1.34252e-63
2.09307e-60
1.05769e-57
2.64905e-55
1.64304e-26
1.66781e-25
8.92608e-25
9.97828e-25
9.28204e-06
1.08262e-05
1.46063e-05
1.91418e-05
2.35902e-05
2.82985e-05
3.32885e-05
3.88596e-05
4.49759e-05
5.14782e-05
5.80695e-05
6.49989e-05
7.22636e-05
7.98891e-05
8.78042e-05
9.60057e-05
0.000104497
0.000113325
0.00012249
0.000132004
0.000141836
0.000152146
0.000158461
0.000150164
0.000144108
0.000138707
0.000134231
0.000128032
0.000136007
8.03443e-05
0.000262546
0.000160404
0.000114844
9.08671e-05
7.73986e-05
6.8932e-05
6.22138e-05
5.50762e-05
4.26957e-05
-2.49046e-06
2.22545e-05
2.18579e-05
2.21561e-05
2.42984e-05
2.68575e-05
2.87223e-05
3.01924e-05
3.12943e-05
3.19253e-05
3.0602e-05
)
;
    }
    topInlet
    {
        type            calculated;
        value           nonuniform List<scalar> 10(-0.000174246 -0.000370233 -0.000799057 -0.0017264 -0.00154049 -0.00154384 -0.00154678 -0.00154938 -0.00155119 -0.00155304);
    }
    bottomInlet
    {
        type            calculated;
        value           uniform 0;
    }
    outlet
    {
        type            calculated;
        value           nonuniform List<scalar> 
20
(
5.19275e-24
3.48131e-23
3.33416e-22
4.55666e-21
9.77061e-20
3.68858e-18
3.12022e-16
6.8207e-13
2.17708e-09
6.72542e-06
0.000143913
0.000339756
0.000731073
0.00156469
0.00134925
0.00126222
0.00112608
0.000943419
0.000699721
0.000415431
)
;
    }
    frontBack
    {
        type            empty;
        value           nonuniform 0();
    }
}


// ************************************************************************* //
