/*--------------------------------*- C++ -*----------------------------------*\
| =========                 |                                                 |
| \\      /  F ield         | OpenFOAM: The Open Source CFD Toolbox           |
|  \\    /   O peration     | Version:  4.x                                   |
|   \\  /    A nd           | Web:      www.OpenFOAM.org                      |
|    \\/     M anipulation  |                                                 |
\*---------------------------------------------------------------------------*/
FoamFile
{
    version     2.0;
    format      ascii;
    class       volScalarField;
    location    "0.5";
    object      alpha.upper;
}
// * * * * * * * * * * * * * * * * * * * * * * * * * * * * * * * * * * * * * //

dimensions      [0 0 0 0 0 0 0];

internalField   nonuniform List<scalar> 
800
(
0
0
0
0
1.15611e-321
1.16599e-321
1.17588e-321
1.18576e-321
1.18576e-321
1.19564e-321
0
0
0
0
1.10671e-321
1.10671e-321
1.10671e-321
1.11659e-321
1.11659e-321
1.12647e-321
0
0
0
0
1.09683e-321
1.09683e-321
1.09683e-321
1.10671e-321
1.10671e-321
1.10671e-321
0
0
0
0
1.08694e-321
1.08694e-321
1.09683e-321
1.09683e-321
1.09683e-321
1.09683e-321
0
0
0
0
1.08694e-321
1.08694e-321
1.08694e-321
1.09683e-321
1.09683e-321
1.09683e-321
0
0
0
0
1.08694e-321
1.08694e-321
1.08694e-321
1.09683e-321
1.09683e-321
1.09683e-321
0
0
0
0
9.68369e-322
9.7825e-322
9.7825e-322
9.88131e-322
9.88131e-322
9.88131e-322
0
0
0
0
2.19365e-321
2.23318e-321
2.2727e-321
2.30235e-321
2.33199e-321
2.33199e-321
0
0
0
0
1.04347e-320
1.06521e-320
1.08497e-320
1.10473e-320
1.12647e-320
1.12054e-320
0
0
0
0
2.2648e-320
2.32408e-320
2.37349e-320
2.42586e-320
3.76873e-320
2.22494e-257
1
1
1
1
1
1
1
1
1
1
1
1
1
1
1
1
1
1
1
1
1
1
1
1
1
1
1
1
1
1
1
1
1
1
1
1
1
1
1
1
1
1
1
1
1
1
1
1
1
1
1
1
1
1
1
1
1
1
1
1
1
1
1
1
1
1
1
1
1
1
1
1
1
1
1
1
1
1
1
1
1
1
1
1
1
1
1
1
1
1
1
1
1
1
1
1
1
1
1
1
1.54148e-321
1.45255e-321
1.36362e-321
1.26481e-321
1.17588e-321
2.17389e-321
2.01579e-321
1.83792e-321
6.28462e-304
1.33574e-271
1.62758e-242
2.61308e-216
1.04592e-192
1.80336e-171
2.1203e-152
2.51507e-135
4.44856e-120
1.59493e-106
1.61615e-94
6.26381e-84
1.33441e-74
1.99835e-66
8.59075e-60
1.40869e-56
7.39382e-54
1.91608e-51
1.22453e-22
1.30017e-21
6.54156e-21
1.22242e-20
1.40315e-321
1.3241e-321
1.24505e-321
1.16599e-321
1.08694e-321
1.00789e-321
9.38725e-322
1.73911e-321
1.60077e-321
1.46243e-321
4.5424e-314
1.94516e-280
4.25365e-250
8.35973e-223
2.63081e-198
2.34099e-176
1.01144e-156
3.26424e-139
1.24703e-123
8.29821e-110
1.5096e-97
1.02916e-86
4.68816e-78
1.31794e-74
1.22756e-71
5.95175e-69
6.38894e-22
6.21566e-21
2.75221e-20
4.90939e-20
1.36362e-321
1.28457e-321
1.20552e-321
1.12647e-321
1.04742e-321
9.7825e-322
9.09081e-322
8.39912e-322
1.55137e-321
1.42291e-321
1.30433e-321
3.00392e-321
2.50935e-288
1.54082e-258
2.14745e-231
9.39574e-207
1.91084e-184
2.43478e-164
2.85545e-146
4.29786e-130
1.2739e-115
9.76407e-103
1.64028e-92
5.95537e-89
7.93067e-86
5.84432e-83
5.93574e-21
5.13787e-20
2.00777e-19
3.50161e-19
1.36362e-321
1.28457e-321
1.20552e-321
1.12647e-321
1.04742e-321
9.68369e-322
8.99199e-322
8.3003e-322
1.54148e-321
1.41303e-321
1.29445e-321
1.18576e-321
2.41715e-304
2.61228e-274
9.14178e-247
1.46489e-221
9.31576e-199
5.14661e-178
3.59033e-159
4.09204e-142
1.09756e-126
8.34185e-113
8.39901e-102
2.2926e-98
2.74923e-95
2.35721e-92
9.43348e-20
6.99742e-19
2.37178e-18
4.01957e-18
1.36362e-321
1.28457e-321
1.20552e-321
1.12647e-321
1.04742e-321
9.68369e-322
8.99199e-322
8.3003e-322
1.5316e-321
1.40315e-321
1.29445e-321
1.18576e-321
5.56169e-305
3.76203e-275
6.35793e-248
5.29014e-224
3.33452e-203
1.73253e-182
1.14763e-163
1.40538e-146
4.71816e-131
6.5543e-117
6.73236e-106
7.67551e-103
4.70618e-100
6.38923e-97
2.79293e-18
1.66614e-17
4.73203e-17
7.70334e-17
1.36362e-321
1.28457e-321
1.20552e-321
1.12647e-321
1.04742e-321
9.68369e-322
8.99199e-322
8.3003e-322
1.54148e-321
1.41303e-321
1.29445e-321
1.18576e-321
-1.54142e-304
-1.41926e-274
-1.16707e-247
-3.15571e-223
-1.63642e-201
5.95052e-181
2.79088e-162
1.63758e-145
2.18939e-130
7.22121e-117
2.54713e-106
1.32634e-103
7.9232e-101
9.42134e-98
1.94451e-16
8.3288e-16
1.86989e-15
2.72461e-15
1.24505e-321
1.16599e-321
1.08694e-321
1.02766e-321
9.48606e-322
8.79437e-322
8.10268e-322
7.5098e-322
1.38338e-321
-1.27469e-321
-1.16599e-321
-2.85872e-317
-2.41044e-286
-2.1106e-258
-2.52867e-233
-1.03001e-210
-2.5274e-190
-4.38359e-172
-9.53291e-156
-3.15368e-141
2.29953e-127
6.72832e-114
6.98308e-104
1.78364e-101
2.29535e-99
4.1703e-97
2.51737e-14
2.75935e-14
2.69746e-14
2.77237e-14
3.00392e-321
2.78653e-321
2.57902e-321
2.3814e-321
2.19365e-321
2.01579e-321
3.69561e-321
-3.37941e-321
-3.08297e-321
-2.82606e-321
-2.38475e-314
-3.16119e-287
-3.92478e-262
-5.70218e-239
-9.55008e-218
-3.17791e-198
-2.86307e-180
-6.01299e-164
-4.57905e-149
-1.80303e-135
-4.04633e-123
-3.23245e-112
4.08165e-103
4.0831e-103
4.41512e-103
-1.74401e-12
-4.65192e-12
1.10905e-13
1.53223e-13
1.68075e-13
7.1936e-321
6.52167e-321
5.89914e-321
5.35567e-321
9.74297e-321
8.8833e-321
-8.10268e-321
-7.39122e-321
-6.72917e-321
-6.12641e-321
-5.46398e-302
-1.80859e-277
-2.21273e-254
-9.65749e-233
-1.17417e-212
-5.66099e-194
-1.28647e-176
-9.21508e-161
-3.60882e-146
-1.21181e-132
-2.48782e-120
-8.58111e-109
-3.21038e-99
-4.84744e-10
-1.83789e-09
-3.92632e-09
-5.87135e-09
5.30774e-10
8.5939e-10
9.31931e-10
1.44992e-266
2.46094e-267
4.76658e-268
9.86302e-269
2.04547e-269
4.1331e-270
7.97328e-271
1.44352e-271
2.46971e-272
4.10599e-273
1.38583e-282
1.98124e-283
-1.11958e-251
-1.74975e-230
-1.03913e-210
-3.17805e-192
-5.30034e-175
-2.96598e-159
-9.96579e-145
-3.30976e-131
-6.94977e-119
0.000435895
0.00201342
0.00487445
0.0089557
0.0143786
0.0203006
0.026643
0.0326461
0.0426612
0.995259
0.990024
0.984478
0.979105
0.973733
0.968271
0.96264
0.956711
0.950377
0.94379
0.937227
0.930491
0.92336
0.915866
0.908289
0.901193
0.894791
0.889225
0.884685
0.881176
0.880045
0.880926
0.882831
0.885584
0.889054
0.893301
0.897647
0.902076
0.906099
0.912499
1
1
1
1
1
1
1
1
1
1
1
1
1
1
1
1
1
1
1
1
1
1
1
1
1
1
1
1
1
1
1
1
1
1
1
1
1
1
1
1
1
1
1
1
1
1
1
1
1
1
1
1
1
1
1
1
1
1
1
1
1
1
1
1
1
1
1
1
1
1
1
1
1
1
1
1
1
1
1
1
1
1
1
1
1
1
1
1
1
1
1
1
1
1
1
1
1
1
1
1
1
1
1
1
1
1
1
1
1
1
1
1
1
1
1
1
1
1
1
1
1
1
1
1
1
1
1
1
1
1
1
1
1
1
1
1
1
1
1
1
1
1
1
1
1
1
1
1
1
1
1
1
1
1
1
1
1
1
1
1
1
1
1
1
1
1
1
1
1
1
1
1
1
1
1
1
1
1
1
1
1
1
1
1
1
1
1
1
1
1
1
1
1
1
1
1
1
1
1
1
1
1
1
1
1
1
1
1
1
1
1
1
1
1
1
1
1
1
1
1
1
1
1
1
1
1
1
1
1
1
1
1
1
1
1
1
1
1
1
1
1
1
1
1
1
1
1
1
1
1
1
1
1
1
1
1
1
1
1
1
1
1
1
1
1
1
1
1
1
1
)
;

boundaryField
{
    walls
    {
        type            zeroGradient;
    }
    topInlet
    {
        type            fixedValue;
        value           uniform 1;
    }
    bottomInlet
    {
        type            fixedValue;
        value           uniform 0;
    }
    outlet
    {
        type            inletOutlet;
        inletValue      uniform 0;
        value           nonuniform List<scalar> 
20
(
1.22242e-20
4.90939e-20
3.50161e-19
4.01957e-18
7.70334e-17
2.72461e-15
2.77237e-14
1.68075e-13
9.31931e-10
0.0426612
0.912499
1
1
1
1
1
1
1
1
1
)
;
    }
    frontBack
    {
        type            empty;
    }
}


// ************************************************************************* //
