/*--------------------------------*- C++ -*----------------------------------*\
| =========                 |                                                 |
| \\      /  F ield         | OpenFOAM: The Open Source CFD Toolbox           |
|  \\    /   O peration     | Version:  4.x                                   |
|   \\  /    A nd           | Web:      www.OpenFOAM.org                      |
|    \\/     M anipulation  |                                                 |
\*---------------------------------------------------------------------------*/
FoamFile
{
    version     2.0;
    format      ascii;
    class       surfaceScalarField;
    location    "0.1";
    object      alphaPhi;
}
// * * * * * * * * * * * * * * * * * * * * * * * * * * * * * * * * * * * * * //

dimensions      [0 3 -1 0 0 0 0];

internalField   nonuniform List<scalar> 
370
(
3.65067e-158
7.30614e-160
1.91838e-157
3.58677e-159
2.83852e-138
4.64712e-140
5.42529e-124
6.36939e-126
3.01457e-111
1.9995e-113
1.03927e-95
3.78507e-99
1.91543e-85
-4.83295e-100
7.68702e-77
-9.60325e-96
2.32206e-69
-3.34122e-86
-8.16993e-78
1.63164e-159
4.32505e-161
1.39927e-158
3.6786e-160
1.97708e-139
4.91585e-141
2.6059e-125
5.77662e-127
7.92078e-113
1.49124e-114
1.46092e-98
2.2193e-100
9.19585e-98
1.04187e-99
8.63849e-94
6.23894e-96
1.94305e-84
4.40282e-87
-2.94918e-86
8.88896e-161
2.4951e-162
1.08358e-159
3.02131e-161
1.63947e-140
4.38508e-142
1.83339e-126
4.49614e-128
4.5333e-114
9.82808e-116
6.49172e-100
1.21061e-101
6.6012e-99
1.02669e-100
5.12918e-95
6.35753e-97
3.4352e-86
3.14007e-88
7.52679e-86
5.06279e-162
1.45589e-163
8.20399e-161
2.35706e-162
1.40746e-141
3.82409e-143
1.36749e-127
3.36464e-129
2.84816e-115
6.16968e-117
3.35705e-101
6.26772e-103
4.84969e-100
7.636e-102
4.09245e-96
5.30538e-98
1.882e-87
1.94581e-89
1.25001e-86
2.95047e-163
8.8112e-165
6.16091e-162
1.81848e-163
1.22646e-142
3.33262e-144
1.02202e-128
2.45888e-130
1.78273e-116
3.74047e-118
1.72971e-102
3.12006e-104
3.29889e-101
5.04418e-103
3.31234e-97
4.2501e-99
1.1246e-88
1.19811e-90
2.10831e-87
1.78938e-164
5.76803e-166
4.66688e-163
1.46286e-164
1.08566e-143
3.00974e-145
7.59464e-130
1.8283e-131
1.09863e-117
2.30486e-119
8.74731e-104
1.59119e-105
2.13401e-102
3.36282e-104
2.79234e-98
3.83721e-100
7.26462e-90
8.77933e-92
6.76788e-88
1.23132e-165
4.54147e-167
3.99518e-164
1.37631e-165
1.13369e-144
3.25517e-146
6.49368e-131
1.60815e-132
7.7337e-119
1.67737e-120
5.06194e-105
9.66942e-107
1.68966e-103
2.88032e-105
4.82567e-99
7.4392e-101
-2.86073e-89
-4.02527e-91
-1.11621e-82
2.12432e-163
2.18843e-164
7.76453e-163
5.8845e-164
3.57284e-137
2.01189e-138
1.74769e-126
7.79697e-128
2.31394e-117
8.34918e-119
-2.10106e-101
-6.27879e-103
-1.08081e-93
-2.74361e-95
-1.20061e-86
-2.64303e-88
-1.95466e-78
-3.78953e-80
-1.38373e-73
1.60606e-134
2.53152e-135
3.68063e-134
2.98847e-135
8.58049e-119
4.74093e-120
4.92994e-113
2.03446e-114
2.87504e-107
9.23495e-109
-6.85153e-95
-1.78804e-96
-1.14803e-85
-2.52747e-87
-1.31925e-79
-2.52498e-81
-1.92568e-73
-3.2751e-75
-1.37956e-69
2.53963e-111
8.53076e-111
6.24389e-112
1.91524e-111
1.55353e-112
4.69036e-112
4.98104e-113
1.1949e-112
2.18883e-109
7.04662e-109
-1.03846e-92
-7.25647e-95
-4.9395e-84
-3.53996e-86
-2.82149e-78
-2.11235e-80
-4.50678e-72
-3.53483e-74
-1.12113e-68
6.75238e-05
-2.55486e-05
8.20948e-05
-1.4571e-05
9.25901e-05
-1.04953e-05
0.000100659
-8.06898e-06
0.000106959
-6.29963e-06
0.000111989
-5.03002e-06
0.000116082
-4.09298e-06
0.000119436
-3.35388e-06
0.000122187
-2.75183e-06
-2.28742e-06
0.000166566
-5.42633e-05
0.000192535
-4.05394e-05
0.000212581
-3.0542e-05
0.000228977
-2.44641e-05
0.000242588
-1.9911e-05
0.000254069
-1.65113e-05
0.000263944
-1.3968e-05
0.000272572
-1.19815e-05
0.000280198
-1.03779e-05
-9.10242e-06
0.000527869
-6.03802e-05
0.000543203
-5.58738e-05
0.000558776
-4.61152e-05
0.000573705
-3.93929e-05
0.000587937
-3.41429e-05
0.000601144
-2.97182e-05
0.000613337
-2.61616e-05
0.000624633
-2.32772e-05
0.000635125
-2.08706e-05
-1.88941e-05
0.00163871
-4.90995e-05
0.00163034
-4.75003e-05
0.00162595
-4.17208e-05
0.00162249
-3.59385e-05
0.00161938
-3.10279e-05
0.00161625
-2.65924e-05
0.00161278
-2.26878e-05
0.00160889
-1.93863e-05
0.00160467
-1.66531e-05
-1.4577e-05
0.00153869
-4.56288e-05
0.00153611
-4.49169e-05
0.0015355
-4.11091e-05
0.00153568
-3.61233e-05
0.00153587
-3.12148e-05
0.00153579
-2.65176e-05
0.0015352
-2.20961e-05
0.00153388
-1.80647e-05
0.00153172
-1.44878e-05
-1.15802e-05
0.00154889
-4.38923e-05
0.00154766
-4.36906e-05
0.00154762
-4.10657e-05
0.00154838
-3.68907e-05
0.00154934
-3.21725e-05
0.00155021
-2.7388e-05
0.00155078
-2.26696e-05
0.00155081
-1.80904e-05
0.00155014
-1.38195e-05
-1.02819e-05
0.00155032
-4.23827e-05
0.00154844
-4.18093e-05
0.00154713
-3.97519e-05
0.00154626
-3.603e-05
0.00154554
-3.14523e-05
0.00154477
-2.66128e-05
0.00154376
-2.16583e-05
0.00154217
-1.65037e-05
0.00153963
-1.12811e-05
-6.67418e-06
0.00153416
-3.73133e-05
0.00152878
-3.64233e-05
0.00152281
-3.37857e-05
0.00151621
-2.94254e-05
0.00150919
-2.44386e-05
0.00150163
-1.90445e-05
0.00149349
-1.35248e-05
0.00148441
-7.41975e-06
0.00147385
-7.19441e-07
5.73162e-06
0.00143434
-2.20143e-05
0.00141777
-1.98581e-05
0.00140056
-1.65744e-05
0.001382
-1.08616e-05
0.00136309
-5.53418e-06
0.00134286
1.18588e-06
0.00132066
8.67856e-06
0.00129683
1.64102e-05
0.00127213
2.39767e-05
3.09999e-05
0.00113566
0.00110497
0.00107379
0.00104379
0.00101466
0.000987552
0.000962942
0.000940493
0.000919494
)
;

boundaryField
{
    walls
    {
        type            calculated;
        value           nonuniform List<scalar> 
20
(
2.73721e-160
1.72604e-159
3.58956e-140
9.31417e-126
6.66152e-113
2.84751e-97
6.34751e-87
3.04605e-78
1.09108e-70
4.98759e-64
9.28204e-06
1.08262e-05
1.46063e-05
1.91418e-05
2.35902e-05
2.82985e-05
3.32885e-05
3.88596e-05
4.49759e-05
5.14782e-05
)
;
    }
    topInlet
    {
        type            calculated;
        value           nonuniform 0();
    }
    bottomInlet
    {
        type            calculated;
        value           nonuniform 0();
    }
    outlet
    {
        type            calculated;
        value           nonuniform 0();
    }
    frontBack
    {
        type            empty;
        value           nonuniform 0();
    }
    procBoundary1to0
    {
        type            processor;
        value           nonuniform List<scalar> 
20
(
-7.7033e-159
-1.02728e-177
-8.98847e-180
-2.15185e-181
-1.08056e-182
-8.60488e-184
-3.41081e-184
-5.67911e-164
-6.42429e-135
-9.87381e-111
-4.19753e-05
-0.000137852
-0.000521752
-0.00165
-0.00154216
-0.00155062
-0.00155183
-0.00153923
-0.00144964
-0.00116695
)
;
    }
    procBoundary1to2
    {
        type            processor;
        value           nonuniform List<scalar> 
20
(
9.04619e-63
3.52782e-76
1.26056e-83
1.55151e-84
2.39211e-85
6.27815e-86
-8.6285e-81
-8.01589e-72
-9.02769e-68
-1.40836e-66
0.000124475
0.000287013
0.000644917
0.00160035
0.00152872
0.00154884
0.00153602
0.00146144
0.00124686
0.000899016
)
;
    }
}


// ************************************************************************* //
