/*--------------------------------*- C++ -*----------------------------------*\
| =========                 |                                                 |
| \\      /  F ield         | OpenFOAM: The Open Source CFD Toolbox           |
|  \\    /   O peration     | Version:  4.x                                   |
|   \\  /    A nd           | Web:      www.OpenFOAM.org                      |
|    \\/     M anipulation  |                                                 |
\*---------------------------------------------------------------------------*/
FoamFile
{
    version     2.0;
    format      ascii;
    class       surfaceScalarField;
    location    "0.45";
    object      alphaPhi;
}
// * * * * * * * * * * * * * * * * * * * * * * * * * * * * * * * * * * * * * //

dimensions      [0 3 -1 0 0 0 0];

internalField   nonuniform List<scalar> 
370
(
5.47316e-222
-1.65954e-287
2.05168e-198
-3.46423e-257
3.44413e-177
-7.68099e-230
4.25072e-158
-3.04363e-205
5.84754e-141
-3.64528e-183
1.27848e-125
-2.20809e-163
6.32107e-112
-1.1012e-145
9.33264e-100
-6.68486e-130
5.5576e-89
-7.47891e-116
-2.18539e-103
5.78393e-286
0
1.01117e-255
-3.6698e-294
1.91345e-228
-1.99892e-264
6.54388e-204
-1.57681e-237
6.81044e-182
-4.9728e-213
3.5983e-162
-8.51101e-191
1.57101e-144
-1.1369e-170
8.35585e-129
-1.56393e-152
8.19931e-115
-3.13908e-136
-1.24366e-121
0
0
3.55021e-292
4.27459e-295
1.39444e-262
-8.09183e-280
8.47741e-236
-2.57664e-252
2.14305e-211
-2.63532e-227
3.01623e-189
-1.79789e-204
3.36658e-169
-7.79637e-184
3.89918e-151
-4.5545e-165
6.63001e-135
-5.04267e-148
-1.34795e-132
0
0
7.61673e-294
3.80228e-296
7.09515e-277
2.67167e-279
7.2439e-250
1.87058e-252
4.26873e-225
5.96131e-228
1.97027e-202
1.60731e-206
6.3019e-182
-9.50167e-189
2.80385e-163
-9.50238e-170
2.4241e-146
-1.35744e-152
-4.79651e-137
0
0
5.473e-295
3.60948e-297
1.65738e-277
9.82337e-280
1.06239e-250
5.75907e-253
3.03687e-226
1.52389e-228
7.44527e-205
3.44997e-207
7.00706e-186
2.99255e-188
3.02686e-167
1.13733e-169
2.54496e-150
7.70101e-153
1.11415e-137
0
0
6.1578e-296
5.79861e-298
-6.52881e-277
-5.95284e-279
-5.73523e-250
-5.12212e-252
-9.13039e-226
-8.03611e-228
-7.45556e-204
-6.46656e-206
-2.10662e-184
-1.80013e-186
6.85458e-166
5.70246e-168
4.51173e-149
3.59049e-151
4.04954e-136
-4.01833e-319
-4.82702e-321
-2.32884e-288
-2.62266e-290
-1.58924e-260
-1.68584e-262
-2.19287e-235
-2.19064e-237
-7.63473e-213
-7.1585e-215
-1.58122e-192
-1.38329e-194
-3.28809e-174
-2.6747e-176
-7.66309e-158
-5.7531e-160
-3.39319e-143
-2.32634e-145
-2.02915e-132
-4.43089e-286
-6.89376e-288
-1.19878e-261
-1.70608e-263
-4.78941e-239
-6.30177e-241
-3.43194e-218
-4.18576e-220
-4.24109e-199
-4.77612e-201
-1.52365e-181
-1.57054e-183
-2.12968e-165
-2.00173e-167
-9.73536e-151
-8.27645e-153
-2.21258e-137
-1.6806e-139
-2.28557e-127
-3.76869e-275
-5.23555e-277
-4.51595e-253
-5.82614e-255
-2.78825e-232
-3.3973e-234
-8.52336e-213
-9.81963e-215
-1.00159e-194
-1.07788e-196
-6.40197e-178
-6.29732e-180
-2.64428e-162
-2.35694e-164
-4.6545e-148
-3.70257e-150
-5.96751e-135
-4.14469e-137
-4.8569e-125
7.59379e-259
3.8402e-258
-2.38733e-250
-1.95574e-252
-4.2466e-230
-3.65916e-232
-5.19466e-211
-4.61272e-213
-3.21413e-193
-2.80423e-195
-1.36593e-176
-1.09847e-178
-4.28627e-161
-3.10056e-163
-6.0409e-147
-3.78277e-149
-6.76812e-134
-3.46951e-136
-3.29228e-124
0.000126406
-1.92723e-06
0.000128005
-1.59878e-06
0.000129291
-1.28636e-06
0.000130316
-1.02424e-06
0.00013116
-8.44259e-07
0.000131921
-7.60881e-07
0.000132634
-7.12669e-07
0.000133334
-7.00481e-07
0.000134055
-7.20677e-07
-8.35431e-07
0.000293177
-8.09099e-06
0.000298806
-7.22753e-06
0.000303974
-6.45532e-06
0.000308735
-5.78502e-06
0.000313128
-5.23728e-06
0.000317185
-4.81803e-06
0.00032093
-4.45756e-06
0.000324376
-4.14582e-06
0.000327527
-3.87188e-06
-3.69094e-06
0.000654127
-1.73004e-05
0.000662821
-1.59224e-05
0.00067103
-1.4664e-05
0.000678776
-1.35307e-05
0.000686084
-1.25455e-05
0.000692972
-1.17062e-05
0.000699449
-1.09346e-05
0.000705504
-1.02002e-05
0.000711116
-9.48468e-06
-8.82706e-06
0.00159627
-1.32172e-05
0.00159266
-1.23116e-05
0.00158967
-1.16744e-05
0.00158741
-1.12709e-05
0.00158595
-1.10917e-05
0.00158532
-1.10727e-05
0.00158545
-1.10675e-05
0.00158621
-1.09606e-05
0.00158742
-1.06868e-05
-1.02092e-05
0.00152501
-9.50769e-06
0.00152066
-7.96049e-06
0.00151576
-6.77527e-06
0.0015104
-5.90701e-06
0.00150464
-5.3401e-06
0.00149855
-4.9835e-06
0.00149215
-4.65887e-06
0.00148534
-4.15565e-06
0.00147802
-3.36776e-06
-2.18916e-06
0.00154696
-7.61892e-06
0.00154431
-5.31481e-06
0.00154076
-3.2217e-06
0.00153617
-1.3195e-06
0.00153039
4.42818e-07
0.00152322
2.18327e-06
0.00151444
4.12288e-06
0.0015038
6.47695e-06
0.00149104
9.39962e-06
1.30448e-05
0.00153139
-2.98847e-06
0.00152537
7.04644e-07
0.00151778
4.37639e-06
0.00150832
8.13476e-06
0.00149681
1.19552e-05
0.00148303
1.5961e-05
0.00146677
2.03882e-05
0.00144775
2.54916e-05
0.00142581
3.1338e-05
3.80135e-05
0.00144686
1.15893e-05
0.00143029
1.72761e-05
0.00141182
2.28442e-05
0.00139127
2.86901e-05
0.0013688
3.44231e-05
0.00134434
4.04232e-05
0.00131789
4.68407e-05
0.0012895
5.38763e-05
0.00125923
6.16113e-05
7.01014e-05
0.00122132
3.71357e-05
0.00119537
4.32287e-05
0.00116886
4.93464e-05
0.00114186
5.56924e-05
0.00111403
6.22516e-05
0.00108529
6.91626e-05
0.00105559
7.65466e-05
0.00102493
8.45385e-05
0.000993385
9.31519e-05
0.00010239
0.000878082
0.000856311
0.000833394
0.000809198
0.000783645
0.000756802
0.000728851
0.000700064
0.000670726
)
;

boundaryField
{
    walls
    {
        type            calculated;
        value           nonuniform List<scalar> 
20
(
3.49438e-223
1.50478e-199
2.88794e-178
4.06039e-159
6.34502e-142
1.57284e-126
8.79792e-113
1.468e-100
9.86901e-90
3.51689e-80
5.80695e-05
6.49989e-05
7.22636e-05
7.98891e-05
8.78042e-05
9.60057e-05
0.000104497
0.000113325
0.00012249
0.000132004
)
;
    }
    topInlet
    {
        type            calculated;
        value           nonuniform 0();
    }
    bottomInlet
    {
        type            calculated;
        value           nonuniform 0();
    }
    outlet
    {
        type            calculated;
        value           nonuniform 0();
    }
    frontBack
    {
        type            empty;
        value           nonuniform 0();
    }
    procBoundary2to1
    {
        type            processor;
        value           nonuniform List<scalar> 
20
(
-3.66635e-248
-2.11302e-319
0
0
0
0
0
2.50582e-312
1.7074e-298
-2.15493e-249
-0.000124475
-0.000287013
-0.000644917
-0.00160035
-0.00152872
-0.00154884
-0.00153602
-0.00146144
-0.00124686
-0.000899016
)
;
    }
    procBoundary2to3
    {
        type            processor;
        value           nonuniform List<scalar> 
20
(
1.75516e-79
2.10207e-102
2.23159e-120
5.13509e-131
5.83591e-135
5.52144e-134
-3.31429e-130
-3.47598e-125
-8.55502e-123
-9.67594e-122
0.00013489
0.000330382
0.000716253
0.0015888
0.00147
0.0014758
0.00140085
0.00122714
0.000961096
0.000641112
)
;
    }
}


// ************************************************************************* //
