/*--------------------------------*- C++ -*----------------------------------*\
| =========                 |                                                 |
| \\      /  F ield         | OpenFOAM: The Open Source CFD Toolbox           |
|  \\    /   O peration     | Version:  4.x                                   |
|   \\  /    A nd           | Web:      www.OpenFOAM.org                      |
|    \\/     M anipulation  |                                                 |
\*---------------------------------------------------------------------------*/
FoamFile
{
    version     2.0;
    format      ascii;
    class       volScalarField;
    location    "0.45";
    object      p_rgh;
}
// * * * * * * * * * * * * * * * * * * * * * * * * * * * * * * * * * * * * * //

dimensions      [1 -1 -2 0 0 0 0];

internalField   nonuniform List<scalar> 
200
(
3163.33
3123.87
3069.36
3002.88
2926.35
2842.79
2751.79
2657.13
2559.58
2461.5
-476.282
-491.588
-491.853
-469.307
-433.844
-400.609
-364.031
-326.156
-291.59
-257.152
1433.29
1345.23
1275.02
1204.13
1140
1093.11
1038.33
989.219
943.814
897.147
452.295
361.773
308.509
286.081
282.377
292.228
319.347
339.43
352.7
374.371
1188.63
1070.92
967.739
883.641
826.805
789.775
759.672
728.295
696.33
654.234
958.155
773.563
646.742
567.524
525.601
506.63
501.865
496.841
490.945
487.789
1187.11
995.853
864.969
776.136
720.808
688.09
666.649
645.412
623.265
598.759
1177.62
967.535
821.576
722.164
660.679
625.281
604.011
585.448
567.518
549.782
1192.24
977.848
829.616
729.379
667.713
632.284
610.789
591.925
573.603
555.384
1195.9
980.743
832.142
731.813
670.127
634.649
612.985
593.928
575.397
556.958
1195.84
980.639
832.037
731.779
670.179
634.767
613.103
594.039
575.492
557.048
1192.37
977.651
829.282
729.238
667.871
632.701
611.221
592.363
574.022
555.818
1179.03
967.556
820.573
721.026
659.845
624.895
603.7
585.413
567.834
550.676
1200.41
1008.76
877.393
788.735
733.427
699.534
674.941
650.806
625.953
600.297
948.793
760.872
637.511
563.53
526.117
511.914
508.73
504.556
499.541
495.324
1229.91
1095.16
980.569
897.858
843.297
803.94
767.976
733.682
697.667
659.185
454.725
370.853
325.017
299.947
298.217
314.612
336.725
352.852
368.9
386.45
1462.86
1372.61
1296.24
1212.78
1157.3
1103.87
1050.12
1001.86
954.772
907.417
-471.289
-485.747
-483.218
-448.931
-420.288
-387.656
-350.464
-313.512
-278.478
-245.054
3246
3203
3144.61
3074.73
2993.05
2902.23
2804.68
2703.42
2599.69
2494.74
)
;

boundaryField
{
    walls
    {
        type            fixedValue;
        value           uniform 0;
    }
    topInlet
    {
        type            fixedValue;
        value           nonuniform 0();
    }
    bottomInlet
    {
        type            fixedValue;
        value           nonuniform 0();
    }
    outlet
    {
        type            fixedValue;
        value           nonuniform 0();
    }
    frontBack
    {
        type            empty;
    }
    procBoundary2to1
    {
        type            processor;
        value           nonuniform List<scalar> 
20
(
3178.99
-426.245
1549.54
585.064
1343.07
1226.41
1479.1
1491.54
1512.53
1517.3
1517.18
1512.58
1493.08
1490.06
1221.18
1388.73
588.309
1580.09
-434.96
3270.5
)
;
    }
    procBoundary2to3
    {
        type            processor;
        value           nonuniform List<scalar> 
20
(
2363.08
-226.415
852.598
388.535
621.678
485.947
577.102
535.584
540.541
541.862
541.929
540.911
536.851
577.867
492.18
627.646
397.374
862.19
-215.288
2388.85
)
;
    }
}


// ************************************************************************* //
