/*--------------------------------*- C++ -*----------------------------------*\
| =========                 |                                                 |
| \\      /  F ield         | OpenFOAM: The Open Source CFD Toolbox           |
|  \\    /   O peration     | Version:  4.x                                   |
|   \\  /    A nd           | Web:      www.OpenFOAM.org                      |
|    \\/     M anipulation  |                                                 |
\*---------------------------------------------------------------------------*/
FoamFile
{
    version     2.0;
    format      ascii;
    class       volScalarField;
    location    "0.3";
    object      alpha.upper;
}
// * * * * * * * * * * * * * * * * * * * * * * * * * * * * * * * * * * * * * //

dimensions      [0 0 0 0 0 0 0];

internalField   nonuniform List<scalar> 
200
(
1.54148e-321
1.45255e-321
1.36362e-321
1.26481e-321
1.76987e-297
2.22924e-260
8.52773e-232
5.3654e-207
3.9828e-185
1.15915e-165
1.40315e-321
1.3241e-321
1.24505e-321
1.16599e-321
3.46444e-299
2.30538e-263
1.4752e-262
3.44011e-261
3.52583e-237
2.92934e-212
1.36362e-321
1.28457e-321
1.20552e-321
1.12647e-321
1.79222e-300
9.16945e-265
9.37557e-264
1.94949e-262
5.38668e-239
3.24971e-237
1.36362e-321
1.28457e-321
1.20552e-321
1.12647e-321
1.09979e-301
4.61055e-266
6.66516e-265
1.55807e-263
2.82557e-240
3.3187e-238
1.36362e-321
1.28457e-321
1.20552e-321
1.12647e-321
6.86657e-303
2.36701e-267
4.51263e-266
1.25014e-264
1.67668e-241
3.86833e-239
1.36362e-321
1.28457e-321
1.20552e-321
1.12647e-321
4.2668e-304
1.20765e-268
2.94714e-267
1.01291e-265
1.09532e-242
5.64514e-240
1.24505e-321
1.16599e-321
1.08694e-321
1.02766e-321
2.84204e-305
6.62497e-270
2.21599e-268
1.15411e-266
1.17383e-243
-1.9958e-233
3.00392e-321
2.78653e-321
2.57902e-321
2.3814e-321
1.49677e-305
2.23575e-270
-2.886e-268
-9.88146e-247
-3.68702e-225
-4.58834e-206
5.89195e-266
1.16967e-265
2.63183e-265
6.69989e-265
1.98109e-264
7.1032e-264
-2.24075e-247
-6.45066e-230
-1.4387e-212
-4.52157e-196
4.70331e-191
7.98286e-192
1.5462e-192
3.1994e-193
6.63517e-194
1.34071e-194
2.5864e-195
4.68255e-196
8.01133e-197
1.33191e-197
0.995259
0.990024
0.984478
0.979105
0.973733
0.968271
0.96264
0.956711
0.950377
0.94379
1
1
1
1
1
1
1
1
1
1
1
1
1
1
1
1
1
1
1
1
1
1
1
1
1
1
1
1
1
1
1
1
1
1
1
1
1
1
1
1
1
1
1
1
1
1
1
1
1
1
1
1
1
1
1
1
1
1
1
1
1
1
1
1
1
1
1
1
1
1
1
1
1
1
1
1
1
1
1
1
1
1
1
1
1
1
1
1
1
1
)
;

boundaryField
{
    walls
    {
        type            zeroGradient;
    }
    topInlet
    {
        type            fixedValue;
        value           nonuniform 0();
    }
    bottomInlet
    {
        type            fixedValue;
        value           nonuniform 0();
    }
    outlet
    {
        type            inletOutlet;
        inletValue      nonuniform 0();
        value           nonuniform 0();
    }
    frontBack
    {
        type            empty;
    }
    procBoundary1to0
    {
        type            processor;
        value           nonuniform List<scalar> 
20
(
1.19564e-321
1.12647e-321
1.10671e-321
1.09683e-321
1.09683e-321
1.09683e-321
9.88131e-322
2.33199e-321
2.83978e-266
7.21733e-182
1
1
1
1
1
1
1
1
1
1
)
;
    }
    procBoundary1to2
    {
        type            processor;
        value           nonuniform List<scalar> 
20
(
3.49729e-148
5.34354e-190
2.81586e-215
1.84859e-216
1.8579e-217
2.70378e-218
-5.46282e-211
-1.5349e-188
-1.66645e-180
-9.27586e-178
0.937227
1
1
1
1
1
1
1
1
1
)
;
    }
}


// ************************************************************************* //
