/*--------------------------------*- C++ -*----------------------------------*\
| =========                 |                                                 |
| \\      /  F ield         | OpenFOAM: The Open Source CFD Toolbox           |
|  \\    /   O peration     | Version:  4.x                                   |
|   \\  /    A nd           | Web:      www.OpenFOAM.org                      |
|    \\/     M anipulation  |                                                 |
\*---------------------------------------------------------------------------*/
FoamFile
{
    version     2.0;
    format      ascii;
    class       surfaceScalarField;
    location    "0.3";
    object      alphaPhi;
}
// * * * * * * * * * * * * * * * * * * * * * * * * * * * * * * * * * * * * * //

dimensions      [0 3 -1 0 0 0 0];

internalField   nonuniform List<scalar> 
370
(
0
0
0
0
0
0
0
0
1.79929e-300
1.19343e-302
2.20506e-263
8.03094e-267
8.22206e-235
-1.02543e-267
5.05042e-210
-4.96699e-266
3.66408e-188
-7.72417e-242
-8.46979e-217
0
0
0
0
0
0
0
0
4.72762e-302
8.90065e-304
3.0997e-266
4.70878e-268
1.95112e-265
2.21058e-267
4.468e-264
3.2269e-266
4.49191e-240
1.01783e-242
-1.11165e-242
0
0
0
0
0
0
0
0
2.70576e-303
5.86601e-305
1.37738e-267
2.5686e-269
1.4006e-266
2.17837e-268
2.89472e-265
3.58796e-267
7.94143e-242
7.25915e-244
2.8371e-242
0
0
0
0
0
0
0
0
1.69996e-304
3.68245e-306
7.12279e-269
1.32985e-270
1.02898e-267
1.62016e-269
2.40289e-266
3.11506e-268
4.35077e-243
4.49826e-245
4.10731e-243
0
0
0
0
0
0
0
0
1.06404e-305
2.23255e-307
3.67e-270
6.61997e-272
6.99939e-269
1.07024e-270
1.93917e-267
2.48817e-269
2.5998e-244
2.76974e-246
5.28211e-244
0
0
0
0
0
0
0
0
6.55731e-307
1.37568e-308
1.85595e-271
3.3761e-273
4.52781e-270
7.13502e-272
1.55497e-268
2.13682e-270
1.67927e-245
2.02941e-247
9.31262e-245
0
0
0
0
0
0
0
0
4.61596e-308
1.00116e-309
1.07401e-272
2.0516e-274
3.58501e-271
6.11128e-273
1.86274e-269
2.87157e-271
1.88973e-246
2.659e-248
-4.14538e-238
0
0
0
0
0
0
0
0
8.84752e-309
3.19236e-310
1.35045e-273
4.03567e-275
-1.77768e-271
-4.51261e-273
-6.19612e-250
-1.36401e-251
-2.34989e-228
-4.55578e-230
-5.12413e-211
9.88386e-270
1.55793e-270
2.26371e-269
1.83801e-270
5.617e-269
3.10353e-270
1.53895e-268
6.35083e-270
4.81829e-268
1.54769e-269
1.80861e-267
4.71992e-269
-5.92532e-251
-1.3045e-252
-1.76111e-233
-3.37067e-235
-4.03694e-216
-6.86584e-218
-1.98563e-201
7.82912e-187
2.62984e-186
1.92485e-187
5.90427e-187
4.78917e-188
1.44593e-187
1.1731e-188
3.61608e-188
2.78027e-189
8.95069e-189
6.3023e-190
2.15004e-189
1.35514e-190
4.94716e-190
2.74647e-191
1.08049e-190
5.21962e-192
2.22451e-191
4.29337e-192
6.75238e-05
-2.55486e-05
8.20948e-05
-1.4571e-05
9.25901e-05
-1.04953e-05
0.000100659
-8.06898e-06
0.000106959
-6.29963e-06
0.000111989
-5.03002e-06
0.000116082
-4.09298e-06
0.000119436
-3.35388e-06
0.000122187
-2.75183e-06
-2.28742e-06
0.000166566
-5.42633e-05
0.000192535
-4.05394e-05
0.000212581
-3.0542e-05
0.000228977
-2.44641e-05
0.000242588
-1.9911e-05
0.000254069
-1.65113e-05
0.000263944
-1.3968e-05
0.000272572
-1.19815e-05
0.000280198
-1.03779e-05
-9.10242e-06
0.000527869
-6.03802e-05
0.000543203
-5.58738e-05
0.000558776
-4.61152e-05
0.000573705
-3.93929e-05
0.000587937
-3.41429e-05
0.000601144
-2.97182e-05
0.000613337
-2.61616e-05
0.000624633
-2.32772e-05
0.000635125
-2.08706e-05
-1.88941e-05
0.00163871
-4.90995e-05
0.00163034
-4.75003e-05
0.00162595
-4.17208e-05
0.00162249
-3.59385e-05
0.00161938
-3.10279e-05
0.00161625
-2.65924e-05
0.00161278
-2.26878e-05
0.00160889
-1.93863e-05
0.00160467
-1.66531e-05
-1.4577e-05
0.00153869
-4.56288e-05
0.00153611
-4.49169e-05
0.0015355
-4.11091e-05
0.00153568
-3.61233e-05
0.00153587
-3.12148e-05
0.00153579
-2.65176e-05
0.0015352
-2.20961e-05
0.00153388
-1.80647e-05
0.00153172
-1.44878e-05
-1.15802e-05
0.00154889
-4.38923e-05
0.00154766
-4.36906e-05
0.00154762
-4.10657e-05
0.00154838
-3.68907e-05
0.00154934
-3.21725e-05
0.00155021
-2.7388e-05
0.00155078
-2.26696e-05
0.00155081
-1.80904e-05
0.00155014
-1.38195e-05
-1.02819e-05
0.00155032
-4.23827e-05
0.00154844
-4.18093e-05
0.00154713
-3.97519e-05
0.00154626
-3.603e-05
0.00154554
-3.14523e-05
0.00154477
-2.66128e-05
0.00154376
-2.16583e-05
0.00154217
-1.65037e-05
0.00153963
-1.12811e-05
-6.67419e-06
0.00153416
-3.73133e-05
0.00152878
-3.64233e-05
0.00152281
-3.37857e-05
0.00151621
-2.94254e-05
0.00150919
-2.44386e-05
0.00150163
-1.90445e-05
0.00149349
-1.35248e-05
0.00148441
-7.41975e-06
0.00147385
-7.19441e-07
5.73161e-06
0.00143434
-2.20143e-05
0.00141777
-1.98581e-05
0.00140056
-1.65744e-05
0.001382
-1.08616e-05
0.00136309
-5.53418e-06
0.00134286
1.18588e-06
0.00132066
8.67856e-06
0.00129683
1.64102e-05
0.00127213
2.39767e-05
3.09999e-05
0.00113566
0.00110497
0.00107379
0.00104379
0.00101466
0.000987552
0.000962942
0.000940493
0.000919494
)
;

boundaryField
{
    walls
    {
        type            calculated;
        value           nonuniform List<scalar> 
20
(
0
0
0
0
3.97602e-302
6.04168e-265
2.72469e-236
2.00127e-211
1.72166e-189
5.74741e-170
9.28204e-06
1.08262e-05
1.46063e-05
1.91418e-05
2.35902e-05
2.82985e-05
3.32885e-05
3.88596e-05
4.49759e-05
5.14782e-05
)
;
    }
    topInlet
    {
        type            calculated;
        value           nonuniform 0();
    }
    bottomInlet
    {
        type            calculated;
        value           nonuniform 0();
    }
    outlet
    {
        type            calculated;
        value           nonuniform 0();
    }
    frontBack
    {
        type            empty;
        value           nonuniform 0();
    }
    procBoundary1to0
    {
        type            processor;
        value           nonuniform List<scalar> 
20
(
0
0
0
0
0
0
0
0
-3.95623e-270
-3.04387e-186
-4.19753e-05
-0.000137852
-0.000521752
-0.00165
-0.00154216
-0.00155062
-0.00155183
-0.00153923
-0.00144964
-0.00116695
)
;
    }
    procBoundary1to2
    {
        type            processor;
        value           nonuniform List<scalar> 
20
(
1.04243e-168
3.6573e-215
4.75147e-240
5.09798e-241
5.99313e-242
8.63874e-243
-3.20446e-236
-2.9684e-209
-1.29938e-199
9.26246e-193
0.000124475
0.000287013
0.000644917
0.00160035
0.00152872
0.00154884
0.00153602
0.00146144
0.00124686
0.000899016
)
;
    }
}


// ************************************************************************* //
