/*--------------------------------*- C++ -*----------------------------------*\
| =========                 |                                                 |
| \\      /  F ield         | OpenFOAM: The Open Source CFD Toolbox           |
|  \\    /   O peration     | Version:  4.x                                   |
|   \\  /    A nd           | Web:      www.OpenFOAM.org                      |
|    \\/     M anipulation  |                                                 |
\*---------------------------------------------------------------------------*/
FoamFile
{
    version     2.0;
    format      ascii;
    class       volScalarField;
    location    "0.3";
    object      p;
}
// * * * * * * * * * * * * * * * * * * * * * * * * * * * * * * * * * * * * * //

dimensions      [1 -1 -2 0 0 0 0];

internalField   nonuniform List<scalar> 
200
(
2241.04
2235.97
2569.87
2877.81
3084.14
3208.95
3284.61
3342.79
3388.72
3410.75
-331.062
50.3229
286.562
246.032
182.819
122.463
28.2851
-85.7567
-150.906
-225.385
2199.03
2212.58
2303.38
2308.23
2269.3
2210.59
2124.46
1997.77
1825.61
1719.5
1965.47
2281.92
2531.68
2572.26
2394.73
2095.36
1742.7
1365.07
1003.63
724.12
3001.14
3505.68
3837.19
3784.68
3415.71
2937.65
2469.99
2047.83
1697.32
1451.22
3396.63
4328.69
4829.87
4637.26
4036.44
3363.95
2736.66
2171.35
1685.42
1303.67
3994.87
5901.35
6608.14
6032.78
5034.59
4086.85
3256.4
2541.09
1958.01
1523.53
3197.02
6826.21
7732.81
6736.25
5450.57
4331.57
3385.94
2597.9
1972.14
1510.56
2326.95
7180.93
8076.24
6941.17
5586.14
4419.06
3439.34
2629.64
1990.29
1519.74
2078.17
7370.64
8172.79
6988.7
5614.89
4435.33
3447.7
2633.37
1991.25
1519.04
2067.29
7364.57
8167.53
6984.07
5610.66
4431.34
3443.84
2629.58
1987.54
1515.46
2294.03
7160.72
8058.63
6924.96
5570.69
4404.03
3424.48
2614.79
1975.58
1505.43
3136.1
6783.76
7695.81
6700.2
5414.62
4295.49
3349.45
2560.82
1935.04
1474.26
3907.43
5832.49
6543.28
5963.93
4961.78
4011.17
3177.78
2459.84
1876.88
1446.06
3238.45
4181.13
4687.66
4495.52
3894.69
3221.14
2589.81
2018.18
1527.81
1144.69
2796.47
3302.24
3638.11
3589.1
3224
2747.65
2278.83
1856.56
1515.85
1281.65
1702.24
2018.2
2266.61
2308.23
2132.35
1826.44
1459.43
1065.53
703.37
450.632
1882.93
1903.26
2001.95
2022.76
2004.38
1943.99
1847.66
1693.08
1533.13
1411.82
-773.136
-397.431
-172.164
-212.169
-222.408
-280.393
-385.163
-480.886
-553.902
-633.827
1935.06
1927.26
2255.71
2563.94
2736.79
2849.92
2921.76
2981.94
3025.25
3041.04
)
;

boundaryField
{
    walls
    {
        type            calculated;
        value           nonuniform List<scalar> 
20
(
247.212
247.212
247.212
247.212
247.212
247.212
247.212
247.212
247.212
247.212
-244.759
-244.759
-244.759
-244.759
-244.759
-244.759
-244.759
-244.759
-244.759
-244.76
)
;
    }
    topInlet
    {
        type            calculated;
        value           nonuniform 0();
    }
    bottomInlet
    {
        type            calculated;
        value           nonuniform 0();
    }
    outlet
    {
        type            calculated;
        value           nonuniform 0();
    }
    frontBack
    {
        type            empty;
    }
    procBoundary1to0
    {
        type            processor;
        value           nonuniform List<scalar> 
20
(
4492.84
-186.235
2682.76
1626.41
2552.03
2470.59
1896.49
664.603
-24.164
-73.4349
-110.241
-86.6899
584.034
1787.86
2304.99
2361.35
1342.92
2362.88
-619.986
4146.15
)
;
    }
    procBoundary1to2
    {
        type            processor;
        value           nonuniform List<scalar> 
20
(
3395.09
-275.422
1603.25
591.352
1296.79
1035.41
1231.55
1196.64
1199.45
1197.64
1194.12
1185.22
1160.2
1156.41
872.306
1122.83
317.048
1294.59
-670.156
3016.54
)
;
    }
}


// ************************************************************************* //
