/*--------------------------------*- C++ -*----------------------------------*\
| =========                 |                                                 |
| \\      /  F ield         | OpenFOAM: The Open Source CFD Toolbox           |
|  \\    /   O peration     | Version:  4.x                                   |
|   \\  /    A nd           | Web:      www.OpenFOAM.org                      |
|    \\/     M anipulation  |                                                 |
\*---------------------------------------------------------------------------*/
FoamFile
{
    version     2.0;
    format      ascii;
    class       surfaceScalarField;
    location    "0.15";
    object      alphaPhi;
}
// * * * * * * * * * * * * * * * * * * * * * * * * * * * * * * * * * * * * * //

dimensions      [0 3 -1 0 0 0 0];

internalField   nonuniform List<scalar> 
370
(
9.60614e-215
1.92249e-216
5.04789e-214
9.43799e-216
3.51614e-198
5.7565e-200
2.78678e-177
3.27174e-179
1.49003e-158
9.88302e-161
1.2543e-137
4.56822e-141
8.71857e-123
-5.83291e-142
3.8918e-110
-2.86825e-139
4.62804e-99
-4.11995e-125
-1.46599e-112
4.29339e-216
1.13807e-217
3.68195e-215
9.67963e-217
2.44906e-199
6.08937e-201
1.33856e-178
2.96725e-180
3.91504e-160
7.37082e-162
1.7632e-140
2.67849e-142
1.10985e-139
1.25744e-141
2.5801e-137
1.86342e-139
2.39591e-123
5.42897e-126
-1.35496e-125
2.33898e-217
6.56545e-219
2.85125e-216
7.95007e-218
2.03085e-200
5.4319e-202
9.4175e-180
2.30951e-181
2.2407e-161
4.85777e-163
7.83489e-142
1.46109e-143
7.96701e-141
1.23912e-142
1.54541e-138
1.9155e-140
4.23583e-125
3.87191e-127
3.45808e-125
1.33219e-218
3.83094e-220
2.15874e-217
6.20221e-219
1.74346e-201
4.73699e-203
7.0243e-181
1.7283e-182
1.40778e-162
3.04952e-164
4.05164e-143
7.56455e-145
5.85311e-142
9.21592e-144
1.23823e-139
1.60522e-141
2.32063e-126
2.3993e-128
5.43403e-126
7.76366e-220
2.31852e-221
1.62114e-218
4.78502e-220
1.51925e-202
4.1282e-204
5.24978e-182
1.26304e-183
8.81157e-164
1.84882e-165
2.0876e-144
3.76562e-146
3.98144e-143
6.08784e-145
1.00188e-140
1.28552e-142
1.38669e-127
1.47734e-129
7.82315e-127
4.70845e-221
1.51776e-222
1.22801e-219
3.84928e-221
1.34484e-203
3.72824e-205
3.90111e-183
9.39132e-185
5.43025e-165
1.13923e-166
1.05572e-145
1.92042e-147
2.57554e-144
4.0586e-146
8.40148e-142
1.15452e-143
8.95696e-129
1.08245e-130
1.66113e-127
3.24002e-222
1.19501e-223
1.05127e-220
3.62154e-222
1.40433e-204
4.03226e-206
3.33558e-184
8.26051e-186
3.82258e-166
8.29082e-168
6.10928e-147
1.16701e-148
2.03925e-145
3.47626e-147
1.19945e-142
1.84906e-144
1.00476e-129
1.41378e-131
-1.54952e-121
2.2718e-215
2.34035e-216
8.2244e-215
6.23302e-216
1.57142e-198
8.84878e-200
4.17665e-183
1.86332e-184
7.33908e-167
2.64809e-168
7.54995e-148
2.25623e-149
-4.38613e-138
-1.11341e-139
-1.8096e-127
-3.98365e-129
-6.47239e-116
-1.25481e-117
-6.07006e-108
2.5189e-168
3.97039e-169
5.77261e-168
4.68704e-169
1.43514e-167
7.92947e-169
1.51677e-162
6.2593e-164
3.23275e-154
1.03839e-155
-4.56893e-139
-1.19235e-140
-5.47197e-127
-1.20469e-128
-4.48432e-118
-8.58274e-120
-4.12054e-109
-7.00802e-111
-1.51111e-102
3.36517e-130
1.13038e-129
8.27353e-131
2.53781e-130
2.05852e-131
6.21501e-131
5.04228e-132
1.55429e-131
1.19503e-132
3.84725e-132
2.7089e-133
9.24144e-133
-2.64195e-124
-1.89339e-126
-5.91609e-116
-4.42916e-118
-3.77347e-107
-2.95966e-109
-3.50277e-101
6.75238e-05
-2.55486e-05
8.20948e-05
-1.4571e-05
9.25901e-05
-1.04953e-05
0.000100659
-8.06898e-06
0.000106959
-6.29963e-06
0.000111989
-5.03002e-06
0.000116082
-4.09298e-06
0.000119436
-3.35388e-06
0.000122187
-2.75183e-06
-2.28742e-06
0.000166566
-5.42633e-05
0.000192535
-4.05394e-05
0.000212581
-3.0542e-05
0.000228977
-2.44641e-05
0.000242588
-1.9911e-05
0.000254069
-1.65113e-05
0.000263944
-1.3968e-05
0.000272572
-1.19815e-05
0.000280198
-1.03779e-05
-9.10242e-06
0.000527869
-6.03802e-05
0.000543203
-5.58738e-05
0.000558776
-4.61152e-05
0.000573705
-3.93929e-05
0.000587937
-3.41429e-05
0.000601144
-2.97182e-05
0.000613337
-2.61616e-05
0.000624633
-2.32772e-05
0.000635125
-2.08706e-05
-1.88941e-05
0.00163871
-4.90995e-05
0.00163034
-4.75003e-05
0.00162595
-4.17208e-05
0.00162249
-3.59385e-05
0.00161938
-3.10279e-05
0.00161625
-2.65924e-05
0.00161278
-2.26878e-05
0.00160889
-1.93863e-05
0.00160467
-1.66531e-05
-1.4577e-05
0.00153869
-4.56288e-05
0.00153611
-4.49169e-05
0.0015355
-4.11091e-05
0.00153568
-3.61233e-05
0.00153587
-3.12148e-05
0.00153579
-2.65176e-05
0.0015352
-2.20961e-05
0.00153388
-1.80647e-05
0.00153172
-1.44878e-05
-1.15802e-05
0.00154889
-4.38923e-05
0.00154766
-4.36906e-05
0.00154762
-4.10657e-05
0.00154838
-3.68907e-05
0.00154934
-3.21725e-05
0.00155021
-2.7388e-05
0.00155078
-2.26696e-05
0.00155081
-1.80904e-05
0.00155014
-1.38195e-05
-1.02819e-05
0.00155032
-4.23827e-05
0.00154844
-4.18093e-05
0.00154713
-3.97519e-05
0.00154626
-3.603e-05
0.00154554
-3.14523e-05
0.00154477
-2.66128e-05
0.00154376
-2.16583e-05
0.00154217
-1.65037e-05
0.00153963
-1.12811e-05
-6.67418e-06
0.00153416
-3.73133e-05
0.00152878
-3.64233e-05
0.00152281
-3.37857e-05
0.00151621
-2.94254e-05
0.00150919
-2.44386e-05
0.00150163
-1.90445e-05
0.00149349
-1.35248e-05
0.00148441
-7.41975e-06
0.00147385
-7.19441e-07
5.73162e-06
0.00143434
-2.20143e-05
0.00141777
-1.98581e-05
0.00140056
-1.65744e-05
0.001382
-1.08616e-05
0.00136309
-5.53418e-06
0.00134286
1.18588e-06
0.00132066
8.67856e-06
0.00129683
1.64102e-05
0.00127213
2.39767e-05
3.09999e-05
0.00113566
0.00110497
0.00107379
0.00104379
0.00101466
0.000987552
0.000962942
0.000940493
0.000919494
)
;

boundaryField
{
    walls
    {
        type            calculated;
        value           nonuniform List<scalar> 
20
(
7.20252e-217
4.54179e-216
4.44647e-200
4.78437e-179
3.29262e-160
3.43668e-139
2.88923e-124
1.54216e-111
2.1746e-100
1.63413e-90
9.28204e-06
1.08262e-05
1.46063e-05
1.91418e-05
2.35902e-05
2.82985e-05
3.32885e-05
3.88596e-05
4.49759e-05
5.14782e-05
)
;
    }
    topInlet
    {
        type            calculated;
        value           nonuniform 0();
    }
    bottomInlet
    {
        type            calculated;
        value           nonuniform 0();
    }
    outlet
    {
        type            calculated;
        value           nonuniform 0();
    }
    frontBack
    {
        type            empty;
        value           nonuniform 0();
    }
    procBoundary1to0
    {
        type            processor;
        value           nonuniform List<scalar> 
20
(
-2.027e-215
-1.54425e-244
-1.35126e-246
-3.23583e-248
-1.6269e-249
-1.30174e-250
-5.94774e-251
-6.07785e-216
-1.00757e-168
-1.30834e-129
-4.19753e-05
-0.000137852
-0.000521752
-0.00165
-0.00154216
-0.00155062
-0.00155183
-0.00153923
-0.00144964
-0.00116695
)
;
    }
    procBoundary1to2
    {
        type            processor;
        value           nonuniform List<scalar> 
20
(
2.96389e-89
6.33023e-111
5.79146e-123
6.74471e-124
8.87622e-125
1.54093e-125
-1.19782e-119
-3.51638e-106
-9.88857e-101
-4.40017e-99
0.000124475
0.000287013
0.000644917
0.00160035
0.00152872
0.00154884
0.00153602
0.00146144
0.00124686
0.000899016
)
;
    }
}


// ************************************************************************* //
