/*--------------------------------*- C++ -*----------------------------------*\
| =========                 |                                                 |
| \\      /  F ield         | OpenFOAM: The Open Source CFD Toolbox           |
|  \\    /   O peration     | Version:  4.x                                   |
|   \\  /    A nd           | Web:      www.OpenFOAM.org                      |
|    \\/     M anipulation  |                                                 |
\*---------------------------------------------------------------------------*/
FoamFile
{
    version     2.0;
    format      ascii;
    class       volScalarField;
    location    "0.15";
    object      alpha.upper;
}
// * * * * * * * * * * * * * * * * * * * * * * * * * * * * * * * * * * * * * //

dimensions      [0 0 0 0 0 0 0];

internalField   nonuniform List<scalar> 
200
(
8.44162e-212
4.5588e-211
3.26761e-195
2.66467e-174
1.46567e-155
1.26805e-134
9.0427e-120
4.13452e-107
5.03061e-96
3.29575e-86
2.99024e-213
2.59439e-212
1.74689e-196
9.67474e-176
2.86898e-157
1.31137e-137
8.39135e-137
1.98654e-134
1.88062e-120
5.07024e-108
1.52426e-214
1.86457e-213
1.3332e-197
6.20895e-177
1.48418e-158
5.21584e-139
5.33308e-138
1.04077e-135
2.87317e-122
3.961e-120
8.59211e-216
1.39398e-214
1.12676e-198
4.54214e-178
9.10758e-160
2.62261e-140
3.79133e-139
8.02884e-137
1.50712e-123
4.39069e-121
5.01189e-217
1.04735e-215
9.81529e-200
3.38995e-179
5.68635e-161
1.34642e-141
2.56691e-140
6.4589e-138
8.94317e-125
5.72926e-122
3.05883e-218
7.99065e-217
8.75384e-201
2.53887e-180
3.53343e-162
6.86944e-143
1.67642e-141
5.47275e-139
5.84224e-126
1.00695e-122
1.97222e-219
6.43099e-218
8.61306e-202
2.04995e-181
2.35356e-163
3.76847e-144
1.26052e-142
7.43152e-140
6.2412e-127
-7.4602e-117
4.26456e-212
1.50208e-211
2.79283e-195
7.23593e-180
1.24158e-163
1.24994e-144
-7.12072e-135
-2.88592e-124
-1.01553e-112
-5.43537e-103
1.50157e-164
2.98274e-164
6.72429e-164
6.60332e-159
1.32918e-150
-1.79441e-135
-2.06931e-123
-1.64253e-114
-1.46849e-105
-3.44103e-97
2.0216e-134
3.43124e-135
6.64597e-136
1.37519e-136
2.85197e-137
5.76273e-138
-2.18333e-120
-4.72181e-112
-2.92397e-103
-3.32363e-95
0.995259
0.990024
0.984478
0.979105
0.973733
0.968271
0.96264
0.956711
0.950377
0.94379
1
1
1
1
1
1
1
1
1
1
1
1
1
1
1
1
1
1
1
1
1
1
1
1
1
1
1
1
1
1
1
1
1
1
1
1
1
1
1
1
1
1
1
1
1
1
1
1
1
1
1
1
1
1
1
1
1
1
1
1
1
1
1
1
1
1
1
1
1
1
1
1
1
1
1
1
1
1
1
1
1
1
1
1
1
1
1
1
1
1
)
;

boundaryField
{
    walls
    {
        type            zeroGradient;
    }
    topInlet
    {
        type            fixedValue;
        value           nonuniform 0();
    }
    bottomInlet
    {
        type            fixedValue;
        value           nonuniform 0();
    }
    outlet
    {
        type            inletOutlet;
        inletValue      nonuniform 0();
        value           nonuniform 0();
    }
    frontBack
    {
        type            empty;
    }
    procBoundary1to0
    {
        type            processor;
        value           nonuniform List<scalar> 
20
(
1.73358e-212
1.0642e-241
8.77718e-244
2.08495e-245
1.04912e-246
8.43827e-248
3.59641e-248
1.15329e-212
7.23237e-165
3.1022e-125
1
1
1
1
1
1
1
1
1
1
)
;
    }
    procBoundary1to2
    {
        type            processor;
        value           nonuniform List<scalar> 
20
(
1.96279e-77
6.03581e-97
1.25863e-108
8.26943e-110
8.34575e-111
1.15401e-111
-1.18937e-105
-3.48786e-94
-2.16271e-89
-1.15961e-87
0.937227
1
1
1
1
1
1
1
1
1
)
;
    }
}


// ************************************************************************* //
