/*--------------------------------*- C++ -*----------------------------------*\
| =========                 |                                                 |
| \\      /  F ield         | OpenFOAM: The Open Source CFD Toolbox           |
|  \\    /   O peration     | Version:  4.x                                   |
|   \\  /    A nd           | Web:      www.OpenFOAM.org                      |
|    \\/     M anipulation  |                                                 |
\*---------------------------------------------------------------------------*/
FoamFile
{
    version     2.0;
    format      ascii;
    class       surfaceScalarField;
    location    "0.2";
    object      alphaPhi;
}
// * * * * * * * * * * * * * * * * * * * * * * * * * * * * * * * * * * * * * //

dimensions      [0 3 -1 0 0 0 0];

internalField   nonuniform List<scalar> 
370
(
4.50272e-104
-2.03313e-132
1.32832e-93
-5.36369e-119
3.31387e-84
-6.4601e-107
8.9047e-76
-4.59539e-96
3.15046e-68
-2.46333e-86
1.74071e-61
-1.2545e-77
1.76757e-55
-7.56594e-70
3.76551e-50
-6.45924e-63
1.93712e-45
-9.4223e-57
-2.74719e-51
7.08601e-131
-3.27066e-149
1.5656e-117
-1.24559e-134
1.60931e-105
-1.88272e-121
9.88019e-95
-1.52031e-109
4.6022e-85
-1.02136e-98
2.04434e-76
-6.58781e-89
1.07939e-68
-4.83765e-80
8.07384e-62
-4.60099e-72
1.03299e-55
-6.65466e-65
-1.67446e-58
5.13429e-147
1.84438e-149
1.20499e-132
1.45086e-135
1.31338e-119
-2.18579e-128
8.17364e-108
-5.39983e-116
4.40158e-97
-7.76447e-105
2.33467e-87
-1.09953e-94
1.43251e-78
-1.61839e-85
1.14711e-70
-3.41028e-77
1.40552e-63
-1.18831e-69
-7.66865e-63
3.56602e-148
2.26742e-150
2.58539e-134
1.29063e-136
1.91656e-125
7.21681e-128
1.51809e-113
3.92015e-116
1.2577e-102
1.75639e-105
1.20495e-92
9.82975e-97
1.30817e-83
-4.86335e-88
2.09944e-75
-1.99959e-79
5.71239e-68
-9.81154e-72
-8.39478e-65
3.62123e-149
2.71723e-151
1.85817e-135
1.22547e-137
4.43175e-126
2.62671e-128
2.12776e-114
1.15343e-116
9.9331e-104
4.98438e-106
3.0937e-94
1.43355e-96
3.58651e-85
1.53171e-87
6.36941e-77
2.39328e-79
1.83949e-69
5.56628e-72
1.94996e-65
5.1967e-150
5.15559e-152
2.04503e-136
1.92574e-138
-7.90571e-125
-7.20827e-127
-6.31028e-113
-5.6357e-115
-2.32692e-102
-2.04804e-104
-6.56457e-93
-5.69376e-95
-1.09797e-84
-9.38223e-87
1.75542e-76
1.46037e-78
6.67515e-69
5.31217e-71
2.47707e-64
-1.46965e-143
-1.76539e-145
-8.02195e-130
-9.03402e-132
-1.91933e-117
-2.036e-119
-2.59299e-106
-2.59036e-108
-1.88069e-96
-1.76338e-98
-1.32731e-87
-1.16117e-89
-1.20706e-79
-9.81883e-82
-1.2306e-72
-9.23881e-75
-1.90288e-66
-1.3046e-68
-2.57995e-63
-8.0777e-129
-1.25676e-130
-7.2555e-118
-1.03259e-119
-9.41658e-108
-1.23901e-109
-1.86157e-98
-2.27046e-100
-4.77407e-90
-5.37634e-92
-2.39572e-82
-2.46945e-84
-2.87598e-75
-2.7032e-77
-6.15734e-69
-5.23462e-71
-3.18693e-63
-2.42067e-65
-3.21277e-60
-2.70112e-123
-3.75246e-125
-1.83108e-113
-2.36232e-115
-3.39772e-104
-4.1399e-106
-1.61972e-95
-1.86605e-97
-1.49479e-87
-1.60864e-89
-3.66351e-80
-3.60363e-82
-2.82641e-73
-2.51928e-75
-4.22128e-67
-3.35795e-69
-1.94089e-61
-1.34803e-63
-2.15164e-58
-1.47323e-121
-1.17171e-123
-5.17948e-112
-4.24311e-114
-5.71113e-103
-4.92109e-105
-1.85732e-94
-1.64924e-96
-1.30047e-86
-1.13462e-88
-2.69165e-79
-2.1646e-81
-1.89818e-72
-1.37309e-74
-2.59743e-66
-1.62649e-68
-1.15735e-60
-5.9329e-63
-8.07365e-58
0.000126406
-1.92723e-06
0.000128005
-1.59878e-06
0.000129291
-1.28636e-06
0.000130316
-1.02424e-06
0.00013116
-8.44259e-07
0.000131921
-7.60881e-07
0.000132634
-7.12668e-07
0.000133334
-7.00481e-07
0.000134055
-7.20677e-07
-8.35431e-07
0.000293177
-8.09099e-06
0.000298806
-7.22753e-06
0.000303974
-6.45532e-06
0.000308735
-5.78502e-06
0.000313128
-5.23728e-06
0.000317185
-4.81803e-06
0.00032093
-4.45756e-06
0.000324376
-4.14582e-06
0.000327527
-3.87188e-06
-3.69094e-06
0.000654127
-1.73004e-05
0.000662821
-1.59224e-05
0.00067103
-1.4664e-05
0.000678776
-1.35307e-05
0.000686084
-1.25455e-05
0.000692972
-1.17062e-05
0.000699449
-1.09346e-05
0.000705504
-1.02002e-05
0.000711116
-9.48468e-06
-8.82706e-06
0.00159627
-1.32172e-05
0.00159266
-1.23116e-05
0.00158967
-1.16744e-05
0.00158741
-1.12709e-05
0.00158595
-1.10917e-05
0.00158532
-1.10727e-05
0.00158545
-1.10675e-05
0.00158621
-1.09606e-05
0.00158742
-1.06868e-05
-1.02092e-05
0.00152501
-9.50769e-06
0.00152066
-7.96049e-06
0.00151576
-6.77527e-06
0.0015104
-5.90701e-06
0.00150464
-5.3401e-06
0.00149855
-4.9835e-06
0.00149215
-4.65887e-06
0.00148534
-4.15565e-06
0.00147802
-3.36776e-06
-2.18916e-06
0.00154696
-7.61892e-06
0.00154431
-5.31481e-06
0.00154076
-3.2217e-06
0.00153617
-1.3195e-06
0.00153039
4.42817e-07
0.00152322
2.18327e-06
0.00151444
4.12288e-06
0.0015038
6.47695e-06
0.00149104
9.39962e-06
1.30448e-05
0.00153139
-2.98847e-06
0.00152537
7.04643e-07
0.00151778
4.37639e-06
0.00150832
8.13476e-06
0.00149681
1.19552e-05
0.00148303
1.5961e-05
0.00146677
2.03882e-05
0.00144775
2.54916e-05
0.00142581
3.1338e-05
3.80135e-05
0.00144686
1.15893e-05
0.00143029
1.72761e-05
0.00141182
2.28442e-05
0.00139127
2.86901e-05
0.0013688
3.44231e-05
0.00134434
4.04232e-05
0.00131789
4.68407e-05
0.0012895
5.38763e-05
0.00125923
6.16113e-05
7.01014e-05
0.00122132
3.71357e-05
0.00119537
4.32287e-05
0.00116886
4.93464e-05
0.00114186
5.56924e-05
0.00111403
6.22516e-05
0.00108529
6.91626e-05
0.00105559
7.65466e-05
0.00102493
8.45385e-05
0.000993385
9.31519e-05
0.00010239
0.000878082
0.000856311
0.000833394
0.000809198
0.000783645
0.000756802
0.000728851
0.000700064
0.000670726
)
;

boundaryField
{
    walls
    {
        type            calculated;
        value           nonuniform List<scalar> 
20
(
2.8748e-105
9.74238e-95
2.77872e-85
8.50599e-77
3.41849e-69
2.14149e-62
2.46018e-56
5.92305e-51
3.43988e-46
5.48212e-42
5.80695e-05
6.49989e-05
7.22636e-05
7.98891e-05
8.78042e-05
9.60057e-05
0.000104497
0.000113325
0.00012249
0.000132004
)
;
    }
    topInlet
    {
        type            calculated;
        value           nonuniform 0();
    }
    bottomInlet
    {
        type            calculated;
        value           nonuniform 0();
    }
    outlet
    {
        type            calculated;
        value           nonuniform 0();
    }
    frontBack
    {
        type            empty;
        value           nonuniform 0();
    }
    procBoundary2to1
    {
        type            processor;
        value           nonuniform List<scalar> 
20
(
-9.71085e-116
-1.13588e-145
-4.09337e-162
-4.54928e-163
-5.626e-164
-8.81624e-165
1.66282e-158
1.54254e-140
1.0831e-133
1.33908e-131
-0.000124475
-0.000287013
-0.000644917
-0.00160035
-0.00152872
-0.00154884
-0.00153602
-0.00146144
-0.00124686
-0.000899016
)
;
    }
    procBoundary2to3
    {
        type            processor;
        value           nonuniform List<scalar> 
20
(
2.73594e-41
2.64245e-50
3.00461e-57
2.92141e-61
1.02139e-62
3.37742e-62
-4.21394e-61
-4.8861e-58
-3.78994e-56
-2.37283e-55
0.00013489
0.000330382
0.000716253
0.0015888
0.00147
0.0014758
0.00140085
0.00122714
0.000961096
0.000641112
)
;
    }
}


// ************************************************************************* //
