/*--------------------------------*- C++ -*----------------------------------*\
| =========                 |                                                 |
| \\      /  F ield         | OpenFOAM: The Open Source CFD Toolbox           |
|  \\    /   O peration     | Version:  4.x                                   |
|   \\  /    A nd           | Web:      www.OpenFOAM.org                      |
|    \\/     M anipulation  |                                                 |
\*---------------------------------------------------------------------------*/
FoamFile
{
    version     2.0;
    format      ascii;
    class       volScalarField;
    location    "0";
    object      k;
}
// * * * * * * * * * * * * * * * * * * * * * * * * * * * * * * * * * * * * * //

dimensions      [0 2 -2 0 0 0 0];

internalField   uniform .0005;

boundaryField
{
    topInlet
    {
        type            fixedValue;
        value           nonuniform List<scalar>
10
(
0.001089141554388
0.004507594392681
0.003954565970024
0.002951395938047
0.002747362901501
0.002823987031272
0.002912570860715
0.003938784486117
0.004467042776628
0.001199149863817
)
;
    }

    bottomInlet
    {
        type            fixedValue;
        value           nonuniform List<scalar>
10
(
0.001199149863817
0.004516145463117
0.003938784486117
0.002950588097574
0.002823987031272
0.002824665987452
0.002913902451354
0.003813353333991
0.004481656283613
0.001089141554388
)
;
    }

    outlet
    {
        type zeroGradient; 
    }

    walls
    {
        type kqRWallFunction;
        // value uniform .375;  
        value $internalField; 
    }

    reflecting
    {
        type zeroGradient; 
    }

    frontBack
    {
        type empty; 
    }
}


// ************************************************************************* //
