/*--------------------------------*- C++ -*----------------------------------*\
| =========                 |                                                 |
| \\      /  F ield         | OpenFOAM: The Open Source CFD Toolbox           |
|  \\    /   O peration     | Version:  4.x                                   |
|   \\  /    A nd           | Web:      www.OpenFOAM.org                      |
|    \\/     M anipulation  |                                                 |
\*---------------------------------------------------------------------------*/
FoamFile
{
    version     2.0;
    format      ascii;
    class       volScalarField;
    location    "0";
    object      k;
}
// * * * * * * * * * * * * * * * * * * * * * * * * * * * * * * * * * * * * * //

dimensions      [0 2 -2 0 0 0 0];

internalField   uniform .0005;

boundaryField
{
    topInlet
    {
        type            fixedValue;
        value           nonuniform List<scalar>
30
(
0.001275212967126
0.003955923760485
0.004724301167649
0.004251506755375
0.003766895450239
0.003304454793923
0.003064806892020
0.002993538237786
0.002952054088583
0.002885865310350
0.002819330543590
0.002777395545523
0.002746643321345
0.002749521296517
0.002752398926236
0.002769187877305
0.002800500605563
0.002831817092852
0.002836210660482
0.002833332685309
0.002833898514078
0.002871325490936
0.002915643990042
0.002977336135640
0.003325827863607
0.003643660972014
0.004146523455545
0.004152398395330
0.004138942952421
0.001384463835466
)
;
    }

    bottomInlet
    {
        type            fixedValue;
        value           nonuniform List<scalar>
30
(
0.001384463835466
0.004138942952421
0.004633135316507
0.004146523455545
0.003473523654372
0.003069202231362
0.002989879459909
0.002952452483050
0.002897663757324
0.002835971611725
0.002833332685309
0.002836210660482
0.002831817092852
0.002800500605563
0.002769187877305
0.002769866833484
0.002801179561743
0.002832496049032
0.002835599684074
0.002831745871155
0.002864167688309
0.002914987303033
0.002983367022355
0.003302625644618
0.003611633215780
0.003723422795946
0.004166349789488
0.004099052842118
0.003955923760485
0.001275212967126
)
;
    }

    outlet
    {
        type zeroGradient; 
    }

    walls
    {
        type kqRWallFunction;
        // value uniform .375;  
        value $internalField; 
    }

    reflecting
    {
        type zeroGradient; 
    }

    frontBack
    {
        type empty; 
    }
}


// ************************************************************************* //
