/*--------------------------------*- C++ -*----------------------------------*\
| =========                 |                                                 |
| \\      /  F ield         | OpenFOAM: The Open Source CFD Toolbox           |
|  \\    /   O peration     | Version:  4.x                                   |
|   \\  /    A nd           | Web:      www.OpenFOAM.org                      |
|    \\/     M anipulation  |                                                 |
\*---------------------------------------------------------------------------*/
FoamFile
{
    version     2.0;
    format      ascii;
    class       volScalarField;
    location    "0";
    object      k;
}
// * * * * * * * * * * * * * * * * * * * * * * * * * * * * * * * * * * * * * //

dimensions      [0 2 -2 0 0 0 0];

internalField   uniform .0005;

boundaryField
{
    topInlet
    {
        type            fixedValue;
        value           nonuniform List<scalar>
900
(
0.000161914354431
0.000161914354431
0.000121321930679
0.000121321930679
0.000119908734865
0.000108845054445
0.000108845054445
0.000109275341470
0.000109275341470
0.000109275341470
0.000109275341470
0.000109275341470
0.000109275341470
0.000109275341470
0.000110454552827
0.000118926713105
0.000118926713105
0.000118926713105
0.000118926713105
0.000118926713105
0.000110661523081
0.000115570001895
0.000115570001895
0.000115570001895
0.000115570001895
0.000115570001895
0.000108845054445
0.000161914354431
0.000161914354431
0.000161914354431
0.000431659633755
0.000502580953448
0.000376582371645
0.000376582371645
0.000348917920912
0.000337854240493
0.000342567871193
0.000351927420338
0.000339189848222
0.000339189848222
0.000339189848222
0.000339189848222
0.000339189848222
0.000344092709277
0.000360675473807
0.000369147634084
0.000369147634084
0.000369147634084
0.000369147634084
0.000354355692166
0.000340576029833
0.000356800991899
0.000358728427424
0.000358728427424
0.000358728427424
0.000349415623515
0.000337854240493
0.000502580953448
0.000502580953448
0.000456970929301
0.000431659633755
0.000878652223280
0.000685129676685
0.000658371424193
0.000601727487946
0.000590663807526
0.000610997174574
0.000620356723718
0.000602372937592
0.000592998823791
0.000592998823791
0.000592998823791
0.000603733741234
0.000620318496492
0.000636901261022
0.000645373421300
0.000645373421300
0.000641332187523
0.000624749422993
0.000608164667735
0.000594385005402
0.000610609967468
0.000626832981993
0.000627157730804
0.000627157730804
0.000602225190548
0.000607661055297
0.000799367601189
0.000878652223280
0.000456970929301
0.000431659633755
0.001293961790705
0.001100439244110
0.000964027067711
0.000880914547282
0.000882026539536
0.000907433692898
0.000916793242043
0.000898809455917
0.000879656171565
0.000873289567348
0.000889036167578
0.000908780208227
0.000925364963485
0.000941947728015
0.000950419888293
0.000938207686338
0.000921622931080
0.000905040166550
0.000888455411292
0.000874675748959
0.000890900711025
0.000907123725551
0.000923348687617
0.000914853802610
0.000881412249885
0.000918851244250
0.001110557790142
0.001293961790705
0.000456970929301
0.000431659633755
0.001272060196352
0.001307521865481
0.001102469452425
0.001027906298684
0.001041178987125
0.001062213305318
0.001055960245728
0.001037976459602
0.001020576302789
0.001019095314695
0.001047819606895
0.001067991789830
0.001084576545088
0.001101159309618
0.001099138547082
0.001077690210429
0.001059640280147
0.001043057515617
0.001026472760359
0.001012693098026
0.001028918060092
0.001045141074618
0.001057402650897
0.001062169973232
0.001031866599239
0.001085443280321
0.001265137861573
0.001320022277461
0.000456970929301
0.000360794635808
0.001107019398877
0.001186675710903
0.001104492629405
0.001047391818657
0.001040455978464
0.001041317445476
0.001037569629651
0.001026079640991
0.001013842450310
0.001012095580893
0.001040819873093
0.001066357040310
0.001087807951792
0.001109256288444
0.001109721354299
0.001088273017646
0.001066822106164
0.001045373769512
0.001023922858029
0.001005409250788
0.001015775512310
0.001026140529533
0.001036506791055
0.001041274113390
0.001040140228217
0.001084668737848
0.001171252355578
0.001155504587847
0.000382473716904
0.000360794635808
0.001162628341576
0.001267702939049
0.001108249995928
0.001041313270837
0.001028498255804
0.001028653699941
0.001027254289409
0.001021076418151
0.001008839227470
0.000999914096123
0.001001183738690
0.001020169908407
0.001041620819889
0.001063069156542
0.001063534222396
0.001042085885744
0.001020634974261
0.001001385025486
0.001000436873652
0.000999966751708
0.001004612506336
0.001013476783998
0.001023843045520
0.001028610367855
0.001030824340663
0.001098135730671
0.001252268986090
0.001236531815993
0.000448202599212
0.000376428044670
0.001252090683990
0.001302998077246
0.001123118932591
0.001034601932700
0.001021786917667
0.001015440619007
0.001013272219860
0.001008122854500
0.001002638622300
0.000994390026682
0.000995659669249
0.000996788437691
0.000997736589525
0.001012073841708
0.001012538907562
0.000997757145903
0.000996808994069
0.000995860956045
0.000994912804211
0.000994442682268
0.000999088436895
0.001003733633876
0.001009860975971
0.001015759840005
0.001024113002526
0.001101315182892
0.001267137922753
0.001325994158407
0.000448202599212
0.000440168338785
0.001315830978106
0.001321334184335
0.001141455039681
0.001046640544899
0.001027729240891
0.001021382942231
0.001015398936929
0.001010249571570
0.001004765339369
0.001000851477050
0.001002121119617
0.001003249888059
0.001004198039893
0.001003335588956
0.000994387012592
0.000993438974568
0.000992490822734
0.000991542784710
0.000990594632877
0.001000925828152
0.001005653826698
0.001010299023679
0.001014944778306
0.001021702163229
0.001030055325750
0.001108366494297
0.001291732353550
0.001372112415830
0.000464993962748
0.000465808032841
0.001349417399648
0.001342402581495
0.001162523436840
0.001067789578546
0.001046724535677
0.001040313755515
0.001034329750212
0.001029180384853
0.001023611382842
0.001019574388595
0.001020844031163
0.001021972799605
0.001017104348091
0.001000496885342
0.000991548308978
0.000990600270954
0.000989652119120
0.000988704081096
0.001004041701754
0.001019648739697
0.001024548435743
0.001029229836962
0.001033875591590
0.001040632976512
0.001050506216649
0.001129515527944
0.001325318775092
0.001405698837373
0.000493121693569
0.000465808032841
0.001383003821191
0.001366484894545
0.001183591833999
0.001088938612193
0.001067873569325
0.001059244568798
0.001053260563496
0.001048111198137
0.001042334294388
0.001038297300141
0.001039566942708
0.001030875100919
0.001014265644477
0.000997658181728
0.000988709605364
0.000987761567340
0.000989547694109
0.001006155156858
0.001022764613300
0.001038371651242
0.001043271347288
0.001048160650246
0.001052806404873
0.001059563789796
0.001071655250296
0.001150618280202
0.001348215329073
0.001439285258915
0.000493121693569
0.000465808032841
0.001416590242734
0.001400071316088
0.001204660231158
0.001110087645841
0.001089022602972
0.001078704975571
0.001072191376779
0.001066841211542
0.001061057205933
0.001057020211686
0.001047809844549
0.001028036397305
0.001011426940863
0.000994819478114
0.000985870901750
0.000991661149213
0.001008270605655
0.001024878068404
0.001041487524845
0.001057094562788
0.001061994258834
0.001066893366751
0.001071737218157
0.001079223955766
0.001092804283943
0.001171686677361
0.001369283726232
0.001472871680458
0.000493121693569
0.000466146659429
0.001429568657554
0.001430638091511
0.001224135303464
0.001129568918571
0.001108503875702
0.001098186248302
0.001088869687361
0.001083438852737
0.001077654847127
0.001067243035372
0.001045001794924
0.001025228347680
0.001008618891238
0.000992011428490
0.000992508333171
0.001009115795919
0.001025725252361
0.001042332715110
0.001058942171551
0.001074263407265
0.001079163103311
0.001084062211229
0.001088961907275
0.001098576336822
0.001112156665000
0.001191095376365
0.001388554075443
0.001491152023243
0.000493121693569
0.000469533297841
0.001432955295966
0.001434024729923
0.001228604893224
0.001134038508332
0.001112973465463
0.001102655838062
0.001087502936381
0.001080906722740
0.001075122717131
0.001064710905376
0.001042469664928
0.001022696217684
0.001006086761242
0.000992667962680
0.000998547201091
0.001015154663840
0.001031764120281
0.001048371583030
0.001064981039472
0.001072203323958
0.001082343634532
0.001087242742449
0.001092142438495
0.001101756868042
0.001115337196220
0.001195564966126
0.001391640015068
0.001492768993587
0.000493121693569
0.000472919936252
0.001436341934377
0.001437411368334
0.001232161919444
0.001138508098092
0.001117443055223
0.001106987289120
0.001090683467602
0.001078374592744
0.001072590587135
0.001062178775379
0.001039937534931
0.001020164087687
0.001003554631246
0.000998706830600
0.001004586069012
0.001021193531760
0.001037802988202
0.001054410450951
0.001064189821902
0.001069671193962
0.001085524165752
0.001090423273670
0.001095322969716
0.001104937399263
0.001119386947311
0.001200034555886
0.001394725954694
0.001496155631998
0.000493121693569
0.000473295363287
0.001439728572789
0.001440798006746
0.001235247859069
0.001142977687852
0.001121912644984
0.001110167820340
0.001093863998822
0.001075842462748
0.001070058457138
0.001059646645383
0.001037405404935
0.001017631957691
0.001009140751438
0.001004745698521
0.001010624936932
0.001027232399681
0.001043841856122
0.001057262111372
0.001061657691906
0.001067139063965
0.001084249779903
0.001093603804891
0.001098503500936
0.001108117930484
0.001123856537072
0.001204504145647
0.001397811894319
0.001499542270410
0.000493121693569
0.000473295363287
0.001443115211200
0.001444078309323
0.001238333798694
0.001147447277613
0.001126382234744
0.001113348351561
0.001097044530043
0.001078078972242
0.001067526327142
0.001057114515386
0.001034873274939
0.001019575199892
0.001015179619358
0.001010784566442
0.001016663804853
0.001033271267601
0.001049880724043
0.001054729981376
0.001059125561910
0.001064606933969
0.001081717649907
0.001096784336111
0.001101684032157
0.001111298461704
0.001128326126832
0.001207964363430
0.001400897833944
0.001502928908821
0.000493121693569
0.000473295363287
0.001446501849612
0.001447164248948
0.001241419738320
0.001151916867373
0.001130851824504
0.001116528882781
0.001100225061264
0.001081259503462
0.001064994197145
0.001054582385390
0.001032341144942
0.001025614067813
0.001021218487279
0.001016823434362
0.001022702672773
0.001039310135522
0.001047802798462
0.001052197851379
0.001056593431913
0.001062074803972
0.001079185519910
0.001096294181987
0.001104864563378
0.001114478992925
0.001132795716592
0.001211050303056
0.001404068132564
0.001506315547233
0.000493121693569
0.000473295363287
0.001449888488023
0.001450250188574
0.001244505677945
0.001156386457134
0.001134065743686
0.001119709414002
0.001103405592484
0.001084440034683
0.001064241133355
0.001052050255394
0.001036885845077
0.001031652935734
0.001027257355199
0.001022862302283
0.001028741540694
0.001040875087932
0.001045270668466
0.001049665721383
0.001054061301917
0.001059542673976
0.001076653389914
0.001093762051991
0.001108045094598
0.001118369133718
0.001137265306353
0.001214136242681
0.001407454770975
0.001509702185644
0.000495629661876
0.000473295363287
0.001452203266228
0.001453335958474
0.001247591447845
0.001160668504717
0.001137246099979
0.001122889770295
0.001106585948777
0.001087620390976
0.001067421489648
0.001049518264663
0.001042924380863
0.001037691471520
0.001033295890985
0.001028900838069
0.001033948044285
0.001038343097201
0.001042738677736
0.001047133730652
0.001051529311186
0.001057010683245
0.001074121399183
0.001091230061260
0.001108340777198
0.001122838477654
0.001141734650288
0.001217222012581
0.001410841223123
0.001513088637792
0.000499016114024
0.000473295363287
0.001452203266228
0.001453958813512
0.001248214302884
0.001161291359755
0.001136569248380
0.001122212918696
0.001105472587783
0.001086507029981
0.001066308128653
0.001051527321131
0.001045641326974
0.001040408417631
0.001036012837096
0.001031617784180
0.001028642749169
0.001033037802086
0.001037433382620
0.001041828435536
0.001046224016071
0.001051705388130
0.001068816104068
0.001085924766145
0.001103035482083
0.001122935046999
0.001141831219633
0.001216488407066
0.001413516415390
0.001515763830059
0.000501691306291
0.000473295363287
0.001452559819087
0.001450887160321
0.001245142649693
0.001156678308881
0.001130106481105
0.001115750151421
0.001097918559024
0.001078953001222
0.001058754099894
0.001043971762929
0.001043375581361
0.001038142672018
0.001033747091483
0.001029352038567
0.001022804506318
0.001023572793773
0.001027968374307
0.001032363427224
0.001036759007758
0.001042240379817
0.001059351095755
0.001076459757832
0.001093570473770
0.001116472279724
0.001135368452359
0.001210025639791
0.001415124513883
0.001517371928552
0.000503299404784
0.000473295363287
0.001454167917580
0.001447815507130
0.001242070996502
0.001150215541606
0.001123643713831
0.001109287384147
0.001090364530265
0.001071398972463
0.001051200071135
0.001034506754616
0.001041109835748
0.001035876926404
0.001031481345870
0.001027086292954
0.001020538760705
0.001014107785460
0.001018503365994
0.001022898418911
0.001027293999445
0.001032775371504
0.001049886087442
0.001066994749519
0.001085976960721
0.001110009512450
0.001128905685084
0.001203562872516
0.001416732612376
0.001518980027045
0.000504907503277
0.000473295363287
0.001455776016073
0.001444743853939
0.001238999343311
0.001143752774331
0.001117180946556
0.001101910389993
0.001082810501505
0.001063844943704
0.001041844914257
0.001025041746304
0.001036818691052
0.001033611180791
0.001029215600257
0.001024820547341
0.001018273015092
0.001009479208305
0.001009038357681
0.001013433410598
0.001017828991132
0.001023310363191
0.001040421079129
0.001057529741206
0.001078422931962
0.001102853633302
0.001122442917810
0.001197100105242
0.001418340710869
0.001520588125538
0.000505887188794
0.000473295363287
0.001457384114566
0.001441672200748
0.001235927690120
0.001137290007057
0.001110718179281
0.001094356361234
0.001075256472746
0.001056290914945
0.001032379905944
0.001015576737991
0.001027353682739
0.001031345435178
0.001026949854644
0.001022554801728
0.001016007269479
0.001007213462692
0.000999573349369
0.001003968402285
0.001008363982819
0.001013845354879
0.001030956070817
0.001048506259354
0.001070868903203
0.001095299604543
0.001115980150535
0.001190862745774
0.001416689395074
0.001522196224031
0.000505887188794
0.000473295363287
0.001458992213059
0.001440083073964
0.001232856036929
0.001130827239782
0.001104255412007
0.001086802332475
0.001067702443987
0.001048736886186
0.001022914897631
0.001006111729678
0.001017888674426
0.001028358899601
0.001024684109031
0.001020289056114
0.001013741523866
0.001004947717079
0.000996152854613
0.000994503393973
0.000998898974507
0.001004380346566
0.001021491062504
0.001040952230595
0.001063314874444
0.001087745575784
0.001109517383260
0.001187791092583
0.001413617741883
0.001523804322524
0.000505887188794
0.000473295363287
0.001460600311552
0.001441691172457
0.001229784383738
0.001124364472508
0.001097792644732
0.001079248303715
0.001060148415228
0.001039848599822
0.001013449889319
0.000996646721365
0.001008423666113
0.001018893891289
0.001022418363418
0.001018023310501
0.001011475778253
0.001002681971466
0.000993887109000
0.000985093302213
0.000989433966194
0.000994915338253
0.001012026054191
0.001033398201836
0.001055760845685
0.001080191547025
0.001103054615986
0.001184719439392
0.001410546088692
0.001525412421017
0.000505887188794
0.000473846201265
0.001462208410045
0.001443299270950
0.001226712730547
0.001117901705233
0.001090446499267
0.001071694274956
0.001052594386469
0.001030383591509
0.001003984881006
0.000987181713053
0.000998958657801
0.001009428882976
0.001018223745442
0.001015757564888
0.001009210032640
0.001000416225853
0.000991621363387
0.000982827556600
0.000979968957881
0.000985450329940
0.001003484213496
0.001025844173077
0.001048206816926
0.001072637518266
0.001096591848711
0.001181647786201
0.001407474435501
0.001527020519510
0.000505887188794
0.000475454299758
0.001463816508537
0.001444907369443
0.001222447306325
0.001111438937958
0.001082892470508
0.001064140246197
0.001045040357710
0.001020918583196
0.000994519872693
0.000977716704740
0.000989493649488
0.000999963874663
0.001008758737129
0.001013491819275
0.001006944287027
0.000998150480240
0.000989355617774
0.000980561810987
0.000971766948522
0.000975985321628
0.000995930184737
0.001018290144318
0.001040652788167
0.001065083489507
0.001089765652404
0.001178576133010
0.001404402782310
0.001528628618003
0.000505887188794
0.000477062407095
0.001465424615875
0.001446515476780
0.001215984503505
0.001104976135139
0.001075338400202
0.001056586175891
0.001036240329880
0.001011453522826
0.000985054812323
0.000968251644369
0.000980028589117
0.000990498814293
0.000999293676759
0.001008087483545
0.001004678528952
0.000995884722165
0.000987089859699
0.000978296052913
0.000969501190447
0.000966520261257
0.000988376114431
0.001010736074011
0.001033098717861
0.001057529419201
0.001082211582097
0.001175504462925
0.001401331112225
0.001529753638787
0.000505887188794
)
;
    }

    bottomInlet
    {
        type            fixedValue;
        value           nonuniform List<scalar>
900
(
0.000161914354431
0.000161914354431
0.000161914354431
0.000108845054445
0.000115570001895
0.000115570001895
0.000115570001895
0.000115570001895
0.000115570001895
0.000110661523081
0.000109275341470
0.000109275341470
0.000109275341470
0.000109275341470
0.000110814118124
0.000118926713105
0.000118926713105
0.000118926713105
0.000118926713105
0.000115296935444
0.000115570001895
0.000115570001895
0.000115570001895
0.000115570001895
0.000115570001895
0.000108845054445
0.000108845054445
0.000161914354431
0.000000000000000
0.000000000000000
0.000456970929301
0.000502580953448
0.000502580953448
0.000337854240493
0.000349415623515
0.000358728427424
0.000358728427424
0.000358728427424
0.000356800991899
0.000340576029833
0.000339189848222
0.000339189848222
0.000339189848222
0.000344452274574
0.000361035039104
0.000369147634084
0.000369147634084
0.000369147634084
0.000367419606007
0.000345211442196
0.000353698014158
0.000358728427424
0.000358728427424
0.000358728427424
0.000358728011400
0.000337854240493
0.000354910139493
0.000502580953448
0.000323651043916
0.000000000000000
0.000456970929301
0.000878652223280
0.000799367601189
0.000607661055297
0.000602225190548
0.000627157730804
0.000627157730804
0.000626832981993
0.000610609967468
0.000594385005402
0.000592998823791
0.000592998823791
0.000604093306532
0.000620678061790
0.000637260826320
0.000645373421300
0.000645373421300
0.000640972622225
0.000621228581576
0.000599020417765
0.000607506989727
0.000626660274079
0.000627157730804
0.000627157730804
0.000611537578434
0.000590663807526
0.000636699192042
0.000841751605098
0.000699722313749
0.000000000000000
0.000456970929301
0.001293961790705
0.001110557790142
0.000918851244250
0.000881412249885
0.000914853802610
0.000923348687617
0.000907123725551
0.000890900711025
0.000874675748959
0.000875972253737
0.000892557008995
0.000909139773525
0.000925724528783
0.000942307293313
0.000950419888293
0.000937848121040
0.000921263365782
0.000901519325133
0.000879311161322
0.000887797733284
0.000906951017636
0.000923594249129
0.000916131791132
0.000890724637770
0.000869850866862
0.000947889380994
0.001152941794050
0.001115031881173
0.000222238374960
0.000456970929301
0.001320022277461
0.001265137861573
0.001085443280321
0.001031866599239
0.001062169973232
0.001057402650897
0.001045141074618
0.001028918060092
0.001012693098026
0.001030922591831
0.001051768590598
0.001068351355128
0.001084936110386
0.001101518874916
0.001101159309618
0.001084576545088
0.001067991789830
0.001047819606895
0.001019095314695
0.001025815082351
0.001044968366703
0.001058416033529
0.001062213305318
0.001041178987125
0.001031368896637
0.001109252206792
0.001228092869880
0.001242685506944
0.000360794635808
0.000382473716904
0.001155504587847
0.001171252355578
0.001084542552784
0.001040140228217
0.001041274113390
0.001036556247019
0.001026189985496
0.001015824968274
0.001005458706752
0.001024188739352
0.001045639650834
0.001067087987487
0.001088538898969
0.001109987235621
0.001109522169767
0.001088073833115
0.001066622921632
0.001041085754415
0.001012361462216
0.001013842450310
0.001026079640991
0.001037569629651
0.001041317445476
0.001040455978464
0.001047518003721
0.001104618814469
0.001186675710903
0.001107542506739
0.000361317743669
0.000448202599212
0.001236531815993
0.001252268986090
0.001078464004964
0.001030824340663
0.001028610367855
0.001026800130786
0.001021186762656
0.001010821745434
0.001000455483912
0.001019185516512
0.001040636427995
0.001062084764647
0.001072615309458
0.001073563347482
0.001073542791104
0.001072594753080
0.001061619698793
0.001036082531576
0.001007358239376
0.001008839227470
0.001021076418151
0.001027254289409
0.001028653699941
0.001028498255804
0.001046334455219
0.001118085807292
0.001267702939049
0.001188569734884
0.000423376975249
0.000448202599212
0.001325994158407
0.001267137922753
0.001089990073398
0.001024113002526
0.001015759840005
0.001012818061237
0.001008172306609
0.001003527109628
0.000994931414471
0.001013661447071
0.001019723804767
0.001020671842790
0.001021619994624
0.001022568032648
0.001022547476270
0.001021599438246
0.001020651286412
0.001019522517971
0.001001834169935
0.001002638622300
0.001008122854500
0.001013272219860
0.001015440619007
0.001021786917667
0.001039623117082
0.001132954743955
0.001302998077246
0.001278032077298
0.000423376975249
0.000448202599212
0.001360164609780
0.001285474029842
0.001108366494297
0.001031164313931
0.001022811151410
0.001014944778306
0.001010299023679
0.001005653826698
0.001000925828152
0.000990594632877
0.000991542784710
0.000992490822734
0.000993438974568
0.000994387012592
0.000994366456214
0.000993418418190
0.000992470266356
0.000991341497915
0.000994476659541
0.001004765339369
0.001010249571570
0.001015398936929
0.001021382942231
0.001027729240891
0.001046640544899
0.001141455039681
0.001321334184335
0.001299039614569
0.000423376975249
0.000448202599212
0.001393751031323
0.001306542427002
0.001129515527944
0.001052313347579
0.001043358751926
0.001033875591590
0.001029229836962
0.001024548435743
0.001019648739697
0.001004041701754
0.000988704081096
0.000989652119120
0.000990600270954
0.000991548308978
0.000991527752600
0.000990579714576
0.000989631562742
0.000990958330639
0.001013199571087
0.001023611382842
0.001029180384853
0.001034329750212
0.001040313755515
0.001046724535677
0.001067789578546
0.001162523436840
0.001342402581495
0.001331829039045
0.000423376975249
0.000448202599212
0.001427337452865
0.001327610824161
0.001150618280202
0.001073462381226
0.001062289565210
0.001052806404873
0.001048160650246
0.001043271347288
0.001038371651242
0.001022764613300
0.001006155156858
0.000989547694109
0.000987761567340
0.000988709605364
0.000988689048986
0.000987741010962
0.000989907794940
0.001009681242184
0.001031922482632
0.001042334294388
0.001048111198137
0.001053260563496
0.001059244568798
0.001067873569325
0.001088938612193
0.001183591833999
0.001366484894545
0.001365415460588
0.000423376975249
0.000462893544734
0.001460923874408
0.001358017366590
0.001171686677361
0.001094611414873
0.001081220378493
0.001071737218157
0.001066893366751
0.001061994258834
0.001057094562788
0.001041487524845
0.001024878068404
0.001008270605655
0.000991661149213
0.000985870901750
0.000985850345372
0.000992021250044
0.001008630706486
0.001028404153730
0.001050645394178
0.001061057205933
0.001066841211542
0.001072191376779
0.001078704975571
0.001089022602972
0.001110087645841
0.001204660231158
0.001400071316088
0.001399001882130
0.000435579884006
0.000493121693569
0.001491152023243
0.001388584142014
0.001191095376365
0.001112285556674
0.001098705228496
0.001088390703992
0.001083491007946
0.001078591900028
0.001073692203982
0.001058942171551
0.001042332715110
0.001025725252361
0.001009115795919
0.000992508333171
0.000992868434001
0.001009475896750
0.001026085353192
0.001045858800436
0.001068100040884
0.001078226050410
0.001084010056020
0.001089440890644
0.001098057356627
0.001108374984028
0.001129430568778
0.001223996953670
0.001430608024940
0.001429568657554
0.000466146659429
0.000493121693569
0.001492768993587
0.001391970780425
0.001195564966126
0.001116755146434
0.001103174818257
0.001085858573995
0.001080958877949
0.001076059770032
0.001071160073986
0.001064981039472
0.001048371583030
0.001031764120281
0.001015154663840
0.000998547201091
0.000998907301922
0.001015514764671
0.001032124221112
0.001051897668356
0.001069145520202
0.001081406581631
0.001087190587240
0.001092621421865
0.001101237887848
0.001111555515249
0.001133021037119
0.001227082893296
0.001433693964566
0.001432955295966
0.000469533297841
0.000493121693569
0.001496155631998
0.001395357418837
0.001200034555886
0.001121224736195
0.001107644408017
0.001089010762131
0.001078426747953
0.001073527640035
0.001068627943989
0.001064189821902
0.001054410450951
0.001037802988202
0.001021193531760
0.001004586069012
0.001004946169843
0.001021553632591
0.001038163089033
0.001057936536277
0.001066613390206
0.001083509534256
0.001090371118461
0.001095801953086
0.001104418419069
0.001114736046469
0.001137490626879
0.001230168832921
0.001436779904191
0.001436341934377
0.000472919936252
0.000493121693569
0.001499542270410
0.001398678050311
0.001204504145647
0.001125694325955
0.001110889948643
0.001092191293352
0.001075894617957
0.001070995510039
0.001066095813993
0.001061657691906
0.001057262111372
0.001043841856122
0.001027232399681
0.001010624936932
0.001010985037763
0.001027592500512
0.001044201956953
0.001058195266053
0.001064081260210
0.001080977404259
0.001093551649682
0.001098982484306
0.001107598950289
0.001118594565818
0.001141960216639
0.001233254772546
0.001439865843816
0.001439728572789
0.000473295363287
0.000493121693569
0.001502928908821
0.001401763989936
0.001207964363430
0.001130163915716
0.001114070479864
0.001095371824573
0.001078261108635
0.001068463380043
0.001063563683997
0.001059125561910
0.001054729981376
0.001049880724043
0.001033271267601
0.001016663804853
0.001017023905684
0.001033631368432
0.001050240824874
0.001055663136056
0.001061549130213
0.001078445274263
0.001096732180902
0.001102163015527
0.001110779481510
0.001123064155578
0.001146429806400
0.001236340712172
0.001442995813539
0.001443115211200
0.000473295363287
0.000493121693569
0.001506315547233
0.001404849929562
0.001211050303056
0.001134633505476
0.001117251011085
0.001098552355793
0.001081441639855
0.001065931250046
0.001061031554000
0.001056593431913
0.001052197851379
0.001047802798462
0.001039310135522
0.001022702672773
0.001023062773604
0.001039670236353
0.001047898096717
0.001053131006060
0.001059017000217
0.001075913144267
0.001096112045594
0.001105343546747
0.001113960012730
0.001127533745339
0.001150899396160
0.001239426651797
0.001446382451950
0.001446501849612
0.000473295363287
0.000495629661876
0.001509702185644
0.001407935869187
0.001214136242681
0.001139103095236
0.001120431542305
0.001101732887014
0.001084622171076
0.001067513508999
0.001058499424004
0.001054061301917
0.001049665721383
0.001045270668466
0.001040875087932
0.001028741540694
0.001029101641525
0.001040970386186
0.001045365966720
0.001050598876063
0.001056484870221
0.001073381014270
0.001093579915598
0.001108524077968
0.001117647005415
0.001132003335099
0.001155368985920
0.001242512591422
0.001449769090362
0.001449888488023
0.000473295363287
0.000499016114024
0.001513088637792
0.001411021639087
0.001217222012581
0.001142508071233
0.001123611898598
0.001104913243307
0.001087802527369
0.001070693865292
0.001055967433273
0.001051529311186
0.001047133730652
0.001042738677736
0.001038343097201
0.001033948044285
0.001034043342539
0.001038438395456
0.001042833975990
0.001048066885333
0.001053952879490
0.001070849023540
0.001091047924868
0.001110013482669
0.001122116349351
0.001136472679035
0.001159838329856
0.001246761272984
0.001453155542510
0.001452203266228
0.000473295363287
0.000501691306291
0.001515763830059
0.001413516415390
0.001216488407066
0.001141394710238
0.001122498537604
0.001103799882312
0.001086689166374
0.001069580504297
0.001052154087231
0.001049103752827
0.001044708172293
0.001040313119376
0.001035917538842
0.001031522485925
0.001031617784180
0.001036012837096
0.001040408417631
0.001045641326974
0.001051527321131
0.001065543728424
0.001085742629752
0.001104708187553
0.001121776409300
0.001136132738984
0.001159934899201
0.001246857842330
0.001455830734777
0.001452203266228
0.000473295363287
0.000503299404784
0.001517371928552
0.001415124513883
0.001210025639791
0.001133840681479
0.001114944508845
0.001096245853553
0.001079135137615
0.001062026475538
0.001042689078918
0.001046838007214
0.001042442426680
0.001038047373763
0.001033651793229
0.001029256740312
0.001029352038567
0.001033747091483
0.001038142672018
0.001043375581361
0.001043971762929
0.001056078720111
0.001076277621439
0.001095717111723
0.001114222380541
0.001128578710225
0.001153472131926
0.001240395075055
0.001457438833270
0.001452559819087
0.000473295363287
0.000504907503277
0.001518980027045
0.001416732612376
0.001203562872516
0.001126905357823
0.001107390480086
0.001088691824794
0.001071581108856
0.001054472446779
0.001033224070605
0.001039355932044
0.001040176681067
0.001035781628150
0.001031386047616
0.001026990994699
0.001027086292954
0.001031481345870
0.001035876926404
0.001041109835748
0.001034506754616
0.001046613711798
0.001066812613126
0.001088163082964
0.001106668351782
0.001121024681466
0.001147009364652
0.001235790535694
0.001459046931763
0.001454167917580
0.000473295363287
0.000505887188794
0.001520588125538
0.001418340710869
0.001197100105242
0.001120442590548
0.001099836451326
0.001081137796035
0.001064027080097
0.001046121706142
0.001023759062292
0.001029890923731
0.001037910935454
0.001033515882537
0.001029120302003
0.001024725249086
0.001024820547341