/*--------------------------------*- C++ -*----------------------------------*\
| =========                 |                                                 |
| \\      /  F ield         | OpenFOAM: The Open Source CFD Toolbox           |
|  \\    /   O peration     | Version:  4.x                                   |
|   \\  /    A nd           | Web:      www.OpenFOAM.org                      |
|    \\/     M anipulation  |                                                 |
\*---------------------------------------------------------------------------*/
FoamFile
{
    version     2.0;
    format      ascii;
    class       volScalarField;
    location    "0";
    object      k;
}
// * * * * * * * * * * * * * * * * * * * * * * * * * * * * * * * * * * * * * //

dimensions      [0 2 -2 0 0 0 0];

internalField   uniform .0005;

boundaryField
{
    topInlet
    {
        type            fixedValue;
        value           nonuniform List<scalar>
40
(
0.000205276357777
0.000637221158972
0.001106467093399
0.001617888712610
0.001510071975956
0.001367748679113
0.001244450224489
0.001188249308065
0.001132639662747
0.001125680679273
0.001116867772073
0.001105218982645
0.001090634875362
0.001074313868976
0.001067966993726
0.001058918513421
0.001039607403586
0.001020922512724
0.001014493874685
0.001009549044441
0.001016192635862
0.001034875533031
0.001052341418675
0.001057286248920
0.001062396751027
0.001078035590091
0.001094980475977
0.001099653742665
0.001104484298037
0.001112856827009
0.001122207248981
0.001131890765914
0.001185877209383
0.001242268642353
0.001360349744720
0.001502524792199
0.001632636471926
0.001127695939967
0.000656432798864
0.000231207656777
)
;
    }

    bottomInlet
    {
        type            fixedValue;
        value           nonuniform List<scalar>
40
(
0.000204448637538
0.000576155741147
0.000993068502216
0.001461216055031
0.001556614242113
0.001424840585807
0.001277388205197
0.001212897463804
0.001150036144979
0.001128454513584
0.001120727917136
0.001108907007648
0.001094484180559
0.001077420703424
0.001068543053537
0.001062620460803
0.001057286248920
0.001052341418675
0.001034875533031
0.001016192635862
0.001016550743000
0.001035235633862
0.001052436716929
0.001057381547174
0.001062715495248
0.001080788626444
0.001096082110673
0.001100968103332
0.001107592399800
0.001116088248039
0.001126702333662
0.001150906738571
0.001211107615947
0.001284016211314
0.001430565021385
0.001562913312831
0.001434694845142
0.000973920751435
0.000555785565659
0.000178021304896
)
;
    }

    outlet
    {
        type zeroGradient; 
    }

    walls
    {
        type kqRWallFunction;
        // value uniform .375;  
        value $internalField; 
    }

    reflecting
    {
        type zeroGradient; 
    }

    frontBack
    {
        type empty; 
    }
}


// ************************************************************************* //
