/*--------------------------------*- C++ -*----------------------------------*\
| =========                 |                                                 |
| \\      /  F ield         | OpenFOAM: The Open Source CFD Toolbox           |
|  \\    /   O peration     | Version:  4.x                                   |
|   \\  /    A nd           | Web:      www.OpenFOAM.org                      |
|    \\/     M anipulation  |                                                 |
\*---------------------------------------------------------------------------*/
FoamFile
{
    version     2.0;
    format      ascii;
    class       volScalarField;
    location    "0";
    object      k;
}
// * * * * * * * * * * * * * * * * * * * * * * * * * * * * * * * * * * * * * //

dimensions      [0 2 -2 0 0 0 0];

internalField   uniform .0027;

boundaryField
{
    topInlet
    {
        type            fixedValue;
        value           nonuniform List<scalar>
20
(
0.000708852183685
0.001509780381170
0.001219539831532
0.001128163414212
0.001109436982244
0.001082773927795
0.001066772681788
0.001041206345378
0.001015867262769
0.001007076629318
0.001040067109621
0.001057561137583
0.001073796421000
0.001098438669801
0.001115718645117
0.001208718883764
0.001480143627285
0.001261993812386
0.000600806474022
0.000188231050120
)
;
    }

    bottomInlet
    {
        type            fixedValue;
        value           nonuniform List<scalar>
20
(
0.000188231050120
0.000600806474022
0.001261993812386
0.001481098669463
0.001208718883764
0.001120532165838
0.001086020219404
0.001066646928216
0.001057561137583
0.001040067109621
0.001007208297569
0.001040425216759
0.001057804696326
0.001074235577558
0.001097509086128
0.001107744742819
0.001125979993736
0.001215961971876
0.001509002916941
0.000708852183685
)
;
    }

    outlet
    {
        type zeroGradient; 
    }

    walls
    {
        type kqRWallFunction;
        // value uniform .375;  
        value $internalField; 
    }

    reflecting
    {
        type zeroGradient; 
    }

    frontBack
    {
        type empty; 
    }
}


// ************************************************************************* //
