/*--------------------------------*- C++ -*----------------------------------*\
| =========                 |                                                 |
| \\      /  F ield         | OpenFOAM: The Open Source CFD Toolbox           |
|  \\    /   O peration     | Version:  4.x                                   |
|   \\  /    A nd           | Web:      www.OpenFOAM.org                      |
|    \\/     M anipulation  |                                                 |
\*---------------------------------------------------------------------------*/
FoamFile
{
    version     2.0;
    format      ascii;
    class       volScalarField;
    location    "0";
    object      k;
}
// * * * * * * * * * * * * * * * * * * * * * * * * * * * * * * * * * * * * * //

dimensions      [0 2 -2 0 0 0 0];

internalField   uniform .0005;

boundaryField
{
    topInlet
    {
        type            fixedValue;
        value           nonuniform List<scalar>
400
(
0.000151165165627
0.000151165165627
0.000151165165627
0.000113267596377
0.000113267596377
0.000101619036439
0.000104936096825
0.000102020757519
0.000102020757519
0.000102020757519
0.000111031392782
0.000111031392782
0.000107897527303
0.000107897527303
0.000107897527303
0.000101619036439
0.000151165165627
0.000151165165627
0.000151165165627
0.000151165165627
0.000197858526524
0.000492733794474
0.000492733794474
0.000369203925535
0.000369203925535
0.000331234601620
0.000348738366375
0.000332544040547
0.000332544040547
0.000343078967698
0.000361914858125
0.000361914858125
0.000343434221063
0.000351699796854
0.000347958124465
0.000331234601620
0.000492733794474
0.000492733794474
0.000492733794474
0.000224928177122
0.000197858526524
0.000672253702384
0.000923077192393
0.000736566400525
0.000691658917708
0.000620527979846
0.000655905618394
0.000622981055364
0.000622981055364
0.000659167840736
0.000678003731163
0.000656804002450
0.000633871235881
0.000658867048873
0.000637251502692
0.000650027960800
0.000875268176897
0.000923077192393
0.000699383467684
0.000224928177122
0.000197858526524
0.000672253702384
0.001331426445474
0.001278761497327
0.001061312321022
0.000999589910474
0.001042909529104
0.000998666271904
0.001020098008464
0.001057412214749
0.001060043481727
0.001022729275442
0.000999796508872
0.001044040739844
0.001001735893460
0.001056293088930
0.001281533305027
0.001358541182099
0.000699383467684
0.000224928177122
0.000197858526524
0.000596912806904
0.001147870022219
0.001223726266485
0.001088107139498
0.001044794732882
0.001043402529639
0.001013209774799
0.001049309371875
0.001097571991588
0.001094305993332
0.001046043373619
0.001015980000893
0.001044248003445
0.001044813825328
0.001091821293869
0.001221258079925
0.001170533367968
0.000619588714090
0.000223024128525
0.000165376350802
0.000561890690616
0.001197236152712
0.001298022795191
0.001092470628767
0.001027592433094
0.001024013780842
0.001005037541811
0.000999768323782
0.001033836101329
0.001034301167184
0.000999788880160
0.001000973445960
0.001022745781736
0.001027451781897
0.001108988745448
0.001292938143207
0.001244829896674
0.000685963740716
0.000220612269092
0.000210528279512
0.000675820789912
0.001322345366945
0.001327062732602
0.001120856547845
0.001028723308927
0.001016315088951
0.001003646750125
0.001002239090364
0.001004372346633
0.000993821995656
0.000991688739387
0.001003546139508
0.001016214757157
0.001028582657729
0.001118520240013
0.001327461212729
0.001348939827670
0.000702429990944
0.000237078519319
0.000213511025387
0.000725435389808
0.001378704498023
0.001362416202920
0.001156210018163
0.001062773609270
0.001048081622516
0.001035138435435
0.001033656757907
0.001008978794162
0.000989058556691
0.000997870330918
0.001035032325345
0.001047981290722
0.001062544942652
0.001153961675897
0.001383509308922
0.001405298958749
0.000754711378614
0.000242722143843
0.000213511025387
0.000725435389808
0.001431989830540
0.001415588554255
0.001189704426988
0.001096326850090
0.001078115625375
0.001064842599248
0.001041844932478
0.001004475150754
0.000990204713006
0.001027574494730
0.001064736489158
0.001078015293581
0.001096098183472
0.001187386985789
0.001416934618814
0.001458584291266
0.000754711378614
0.000242722143843
0.000216699107174
0.000728623471595
0.001439943073315
0.001440444699220
0.001207556129937
0.001114178553039
0.001091047632513
0.001074537892142
0.001037629888456
0.001000260106732
0.001007968491235
0.001045338272959
0.001079809513291
0.001093170609771
0.001112736404628
0.001205186666628
0.001433431772114
0.001466690497214
0.000754711378614
0.000242722143843
0.000216942970498
0.000733996421304
0.001445316023024
0.001445817648929
0.001214647197269
0.001121269620371
0.001096093590251
0.001070520632112
0.001033612628425
0.001004037612512
0.001017549240549
0.001054919022273
0.001078610548020
0.001098216567509
0.001118382594946
0.001212277733959
0.001438327658949
0.001472063446924
0.000754711378614
0.000242722143843
0.000216942970498
0.000737095932559
0.001450688972734
0.001451123003807
0.001219682451709
0.001128360687703
0.001101139547989
0.001066503372081
0.001029595368395
0.001013618361827
0.001027129989864
0.001054144244037
0.001074593287989
0.001103262525246
0.001125473662278
0.001217504503121
0.001443273316162
0.001477436396633
0.000754711378614
0.000242722143843
0.000216942970498
0.000737095932559
0.001456061922443
0.001456018890642
0.001224578338544
0.001135451755034
0.001106185505726
0.001062486112051
0.001033088771630
0.001023199111141
0.001036710739178
0.001050126984006
0.001070576027959
0.001108308482984
0.001132564729610
0.001222400389956
0.001448646265871
0.001482809346343
0.000760072575259
0.000242722143843
0.000216942970498
0.000737095932559
0.001459849181909
0.001460914777477
0.001229474225379
0.001140505703490
0.001111231463464
0.001064572876341
0.001042669520944
0.001032779860456
0.001036220063487
0.001046109723976
0.001066558767928
0.001113218381982
0.001139655796941
0.001227296276791
0.001454019215581
0.001488182296052
0.000765445524968
0.000245226649841
0.000216942970498
0.000737095932559
0.001459916209611
0.001458581464452
0.001227140912355
0.001134230098158
0.001103674671126
0.001057016084003
0.001042500448146
0.001032610787657
0.001024063251372
0.001033952911860
0.001054401955813
0.001102233119276
0.001133911922939
0.001220981652815
0.001457304165406
0.001491467245878
0.000768730474794
0.000248511599666
0.000216942970498
0.000737095932559
0.001462467526353
0.001453708155854
0.001222267603756
0.001123976642650
0.001091689882800
0.001043394702305
0.001038905746241
0.001029016085752
0.001014225912013
0.001018936273090
0.001039385317043
0.001090248330950
0.001123658467431
0.001210728197307
0.001459855482149
0.001494018562620
0.000771281791537
0.000249005518532
0.000216942970498
0.000737095932559
0.001465018825407
0.001448834881044
0.001217394328946
0.001113723258232
0.001079705177568
0.001028378167650
0.001030629648916
0.001025421408770
0.001010631235031
0.001003919738435
0.001024368782388
0.001078263625718
0.001113405083014
0.001203152021161
0.001462406781202
0.001496569861673
0.000773833090590
0.000249005518532
0.000216942970498
0.000737836532088
0.001467570142149
0.001448803367556
0.001212521020347
0.001103469802724
0.001067720389242
0.001013361528880
0.001015613010146
0.001021826706865
0.001007036533125
0.000988903099665
0.001009352143618
0.001066278837391
0.001103151627506
0.001198278712563
0.001459759641012
0.001499121178416
0.000774248674630
0.000249005518532
0.000216942970498
0.000740387848830
0.001470121458891
0.001451354684298
0.001204257040710
0.001093017295071
0.001055735600915
0.000998344890110
0.001000596371376
0.001018232004959
0.001003441831220
0.000983654182431
0.000994335504847
0.001054294049065
0.001092601694901
0.001193405403964
0.001454886332413
0.001501672495158
0.000774248674630
0.000249005518532
0.000217762552055
0.000742939158497
0.001472672768558
0.001453905993965
0.001194003613638
0.001081032539983
0.001043750845827
0.000983328292986
0.000985579774252
0.001005367423041
0.000999847139284
0.000980059490495
0.000981328074079
0.001042309293977
0.001080616939812
0.001188532108881
0.001450013037330
0.001503965647277
0.000774248674630
0.000249005518532
)
;
    }

    bottomInlet
    {
        type            fixedValue;
        value           nonuniform List<scalar>
400
(
0.000151165165627
0.000151165165627
0.000151165165627
0.000151165165627
0.000101619036439
0.000107897527303
0.000107897527303
0.000107897527303
0.000102020757519
0.000102020757519
0.000111031392782
0.000111031392782
0.000107897527303
0.000107897527303
0.000107897527303
0.000101619036439
0.000151165165627
0.000000000000000
0.000000000000000
0.000000000000000
0.000224928177122
0.000492733794474
0.000492733794474
0.000492733794474
0.000331234601620
0.000347958124465
0.000351699796854
0.000343434221063
0.000332544040547
0.000343438532995
0.000361914858125
0.000361914858125
0.000343785596367
0.000351699796854
0.000347395033010
0.000331234601620
0.000492733794474
0.000320777190448
0.000000000000000
0.000000000000000
0.000224928177122
0.000699383467684
0.000923077192393
0.000875268176897
0.000650027960800
0.000637251502692
0.000658867048873
0.000633871235881
0.000622981055364
0.000659527406034
0.000678003731163
0.000656444437152
0.000634222611184
0.000658867048873
0.000636688411237
0.000652110435116
0.000882050853340
0.000751120588367
0.000091947845277
0.000000000000000
0.000224928177122
0.000699383467684
0.001358541182099
0.001281533305027
0.001056293088930
0.001001735893460
0.001044040739844
0.000999796508872
0.001020457573762
0.001057771780047
0.001059683916429
0.001022369710144
0.001000147884176
0.001044391141377
0.001001172802004
0.001058375563246
0.001288315981469
0.001293315685170
0.000634142942079
0.000159747766219
0.000223024128525
0.000619588714090
0.001170533367968
0.001221258079925
0.001091821293869
0.001044813825328
0.001044248003445
0.001015980000893
0.001049774437730
0.001098037057443
0.001097571991588
0.001049309371875
0.001016204497460
0.001044471877862
0.001044794732882
0.001093252016596
0.001189705818324
0.001119640131262
0.000561890690616
0.000165376350802
0.000220612269092
0.000685963740716
0.001244829896674
0.001292938143207
0.001090094787679
0.001027451781897
0.001023913449049
0.001004813045244
0.001041602204742
0.001057142363657
0.001057121807280
0.001041137138887
0.001005037541811
0.001024013780842
0.001027592433094
0.001110419468174
0.001298022795191
0.001222166550925
0.000659354539684
0.000194062029285
0.000220612269092
0.000685963740716
0.001334702235973
0.001321324062286
0.001118520240013
0.001029670173752
0.001016214757157
0.001003546139508
0.000991688739387
0.000993821995656
0.000993801439278
0.000991668183009
0.001003646750125
0.001016315088951
0.001028723308927
0.001120856547845
0.001327062732602
0.001305879116718
0.000659354539684
0.000194062029285
0.000220612269092
0.000685963740716
0.001391061367052
0.001356677532604
0.001153961675897
0.001065158954776
0.001047981290722
0.001035032325345
0.000997870330918
0.000989058556691
0.000989038000313
0.000998230431749
0.001035138435435
0.001048081622516
0.001062773609270
0.001156210018163
0.001362416202920
0.001361801595833
0.000659354539684
0.000194062029285
0.000221054080665
0.000733043315436
0.001444346699569
0.001408858696142
0.001187386985789
0.001097529254029
0.001078015293581
0.001064736489158
0.001027574494730
0.000990204713006
0.000990564813837
0.001027934595561
0.001064842599248
0.001078115625375
0.001096326850090
0.001189704426988
0.001415588554255
0.001415086928350
0.000703767326630
0.000194062029285
0.000242722143843
0.000754711378614
0.001466690497214
0.001433714841107
0.001205186666628
0.001113949886421
0.001090678101843
0.001074431782052
0.001045338272959
0.001007968491235
0.001008328592066
0.001045698373790
0.001079915623381
0.001093276425797
0.001112965071245
0.001206253602398
0.001440161630227
0.001439943073315
0.000728623471595
0.000216699107174
0.000242722143843
0.000754711378614
0.001472063446924
0.001439087790816
0.001212277733959
0.001121040953753
0.001095724059581
0.001070414522022
0.001054919022273
0.001017549240549
0.001017909341380
0.001055279123104
0.001078981105620
0.001098322383535
0.001118700770164
0.001211149489233
0.001445057517062
0.001445316023024
0.000733996421304
0.000216942970498
0.000242722143843
0.000754711378614
0.001477436396633
0.001444351478920
0.001217504503121
0.001128132021085
0.001100770017319
0.001066397261991
0.001054144244037
0.001027129989864
0.001027490090695
0.001054239542291
0.001074963845590
0.001103368341272
0.001125791837496
0.001216045376068
0.001450044841049
0.001450688972734
0.000737095932559
0.000216942970498
0.000242722143843
0.000760072575259
0.001482809346343
0.001449247365755
0.001222400389956
0.001135141570534
0.001105815975056
0.001062380001961
0.001050126984006
0.001036710739178
0.001037070840009
0.001050222282261
0.001070946585559
0.001108414299010
0.001132882904828
0.001221812408074
0.001455417790758
0.001456061922443
0.000737095932559
0.000216942970498
0.000245226649841
0.000765445524968
0.001488182296052
0.001454143252590
0.001227296276791
0.001140187528272
0.001110861932794
0.001064202318741
0.001046109723976
0.001036220063487
0.001036315361741
0.001046205022230
0.001066929325529
0.001113460256748
0.001139973972160
0.001228903475406
0.001460790740468
0.001459849181909
0.000737095932559
0.000216942970498
0.000248511599666
0.000768730474794
0.001491467245878
0.001457304165406
0.001220981652815
0.001132630735934
0.001103305140456
0.001056645526403
0.001042405149892
0.001032515489403
0.001032610787657
0.001042500448146
0.001054772513413
0.001102716072929
0.001132948911152
0.001223159601404
0.001464075690293
0.001459916209611
0.000737095932559
0.000216942970498
0.000249005518532
0.000771281791537
0.001494018562620
0.001459855482149
0.001210728197307
0.001120764997109
0.001091320352130
0.001042910406518
0.001038810447987
0.001028920787498
0.001029016085752
0.001038905746241
0.001039755874643
0.001090731284602
0.001121180597280
0.001212906145895
0.001466627007036
0.001462467526353
0.000737095932559
0.000216942970498
0.000249005518532
0.000773833090590
0.001496569861673
0.001462406781202
0.001203152021161
0.001110511612691
0.001079335646898
0.001027893871863
0.001030820325673
0.001025326110516
0.001025421408770
0.001030629648916
0.001024739339988
0.001078746579370
0.001110927212862
0.001205933456194
0.001469178306089
0.001465018825407
0.000737095932559
0.000216942970498
0.000249005518532
0.000774248674630
0.001499121178416
0.001459759641012
0.001198278712563
0.001100258157183
0.001067350858572
0.001012877233093
0.001015803686903
0.001021731408610
0.001021826706865
0.001015613010146
0.001009722701218
0.001066761791044
0.001100673757354
0.001201060147595
0.001467364905169
0.001467570142149
0.000737836532088
0.000216942970498
0.000249005518532
0.000774248674630
0.001501672495158
0.001454886332413
0.001193405403964
0.001090004701675
0.001055366070245
0.000997860594323
0.001000787048132
0.001018136706705
0.001018232004959
0.001000596371376
0.000994706062448
0.001054777002718
0.001090420301846
0.001196186838997
0.001462491596571
0.001470121458891
0.000740387848830
0.000216942970498
0.000249005518532
0.000774248674630
0.001503965647277
0.001450013037330
0.001188532108881
0.001079751274603
0.001043381315157
0.000982843997199
0.000985770451008
0.001005558099797
0.001005367423041
0.000985579774252
0.000981812369866
0.001042792247629
0.001080166874774
0.001191313543914
0.001457618301487
0.001472672768558
0.000742939158497
0.000217762552055
)
;
    }

    outlet
    {
        type zeroGradient; 
    }

    walls
    {
        type kqRWallFunction;
        // value uniform .375;  
        value $internalField; 
    }

    reflecting
    {
        type zeroGradient; 
    }

    frontBack
    {
        type empty; 
    }
}


// ************************************************************************* //
