/*--------------------------------*- C++ -*----------------------------------*\
| =========                 |                                                 |
| \\      /  F ield         | OpenFOAM: The Open Source CFD Toolbox           |
|  \\    /   O peration     | Version:  4.x                                   |
|   \\  /    A nd           | Web:      www.OpenFOAM.org                      |
|    \\/     M anipulation  |                                                 |
\*---------------------------------------------------------------------------*/
FoamFile
{
    version     2.0;
    format      ascii;
    class       volScalarField;
    location    "0";
    object      k;
}
// * * * * * * * * * * * * * * * * * * * * * * * * * * * * * * * * * * * * * //

dimensions      [0 2 -2 0 0 0 0];

internalField   uniform .0005;

boundaryField
{
    topInlet
    {
        type            fixedValue;
        value           nonuniform List<scalar>
10
(
0.000404234948157
0.001627805239790
0.001174632338964
0.001076982861337
0.001016966289807
0.001044217978462
0.001095745042639
0.001172252334165
0.001620975696928
0.000427116112780
)
;
    }

    bottomInlet
    {
        type            fixedValue;
        value           nonuniform List<scalar>
10
(
0.000427116112780
0.001621064166493
0.001172252334165
0.001076613536053
0.001044217978462
0.001044578079293
0.001095850799852
0.001171327277554
0.001627758506437
0.000404234948157
)
;
    }

    outlet
    {
        type zeroGradient; 
    }

    walls
    {
        type kqRWallFunction;
        // value uniform .375;  
        value $internalField; 
    }

    reflecting
    {
        type zeroGradient; 
    }

    frontBack
    {
        type empty; 
    }
}


// ************************************************************************* //
