/*--------------------------------*- C++ -*----------------------------------*\
| =========                 |                                                 |
| \\      /  F ield         | OpenFOAM: The Open Source CFD Toolbox           |
|  \\    /   O peration     | Version:  4.x                                   |
|   \\  /    A nd           | Web:      www.OpenFOAM.org                      |
|    \\/     M anipulation  |                                                 |
\*---------------------------------------------------------------------------*/
FoamFile
{
    version     2.0;
    format      ascii;
    class       volScalarField;
    location    "0";
    object      k;
}
// * * * * * * * * * * * * * * * * * * * * * * * * * * * * * * * * * * * * * //

dimensions      [0 2 -2 0 0 0 0];

internalField   uniform .0005;

boundaryField
{
    topInlet
    {
        type            fixedValue;
        value           nonuniform List<scalar>
20
(
0.000216942970498
0.000737095932559
0.001449793419028
0.001450295044933
0.001218866413995
0.001127178761206
0.001100298496723
0.001067172961842
0.001030264958155
0.001012021459563
0.001025533087600
0.001054813833797
0.001075262877750
0.001102421473981
0.001124291735781
0.001216688465407
0.001442407508070
0.001476540842927
0.000754711378614
0.000242722143843
)
;
    }

    bottomInlet
    {
        type            fixedValue;
        value           nonuniform List<scalar>
20
(
0.000242722143843
0.000754711378614
0.001476540842927
0.001443535441206
0.001216688465407
0.001126950094588
0.001099928966053
0.001067066851751
0.001054813833797
0.001025533087600
0.001025893188431
0.001054909132052
0.001075633435350
0.001102527290007
0.001124609910999
0.001215229338354
0.001449149287343
0.001449793419028
0.000737095932559
0.000216942970498
)
;
    }

    outlet
    {
        type zeroGradient; 
    }

    walls
    {
        type kqRWallFunction;
        // value uniform .375;  
        value $internalField; 
    }

    reflecting
    {
        type zeroGradient; 
    }

    frontBack
    {
        type empty; 
    }
}


// ************************************************************************* //
