/*--------------------------------*- C++ -*----------------------------------*\
| =========                 |                                                 |
| \\      /  F ield         | OpenFOAM: The Open Source CFD Toolbox           |
|  \\    /   O peration     | Version:  4.x                                   |
|   \\  /    A nd           | Web:      www.OpenFOAM.org                      |
|    \\/     M anipulation  |                                                 |
\*---------------------------------------------------------------------------*/
FoamFile
{
    version     2.0;
    format      ascii;
    class       volScalarField;
    location    "0";
    object      k;
}
// * * * * * * * * * * * * * * * * * * * * * * * * * * * * * * * * * * * * * //

dimensions      [0 2 -2 0 0 0 0];

internalField   uniform .0005;

boundaryField
{
    topInlet
    {
        type            fixedValue;
        value           nonuniform List<scalar>
400
(
0.000257980531294
0.000193304023255
0.000193304023255
0.000173424432152
0.000173493647197
0.000174110014822
0.000174110014822
0.000174110014822
0.000174110014822
0.000176870831686
0.000189487687732
0.000189487687732
0.000189487687732
0.000176837790004
0.000184139390206
0.000184139390206
0.000184139390206
0.000173424432152
0.000257980531294
0.000257980531294
0.000646494552304
0.000696092611214
0.000616410032198
0.000553017769661
0.000576540004781
0.000567606925782
0.000555203963347
0.000555203963347
0.000566747465213
0.000591623602736
0.000604240458782
0.000604240458782
0.000582807876053
0.000557931738530
0.000576869886885
0.000587185747790
0.000587185747790
0.000553017769661
0.000822651204686
0.000668724969339
0.000646494552304
0.001367653819426
0.001081410881960
0.001017821865201
0.001055881878937
0.001046948799938
0.001017997438026
0.001030429524646
0.001060011743243
0.001084887880766
0.001085792097555
0.001060917950760
0.001036041813237
0.001011165675714
0.001030103824070
0.001054440293399
0.001040671861300
0.001046975812306
0.001341837334380
0.000668724969339
0.000540360386541
0.001215991331740
0.001092282310807
0.001039440671953
0.001040731152858
0.001029100269246
0.001010603006338
0.001030638129495
0.001068900108205
0.001101075188013
0.001101537679037
0.001069365174059
0.001037190094250
0.001005015014442
0.001017592863972
0.001033141634105
0.001040202520035
0.001070429571164
0.001205760189782
0.000564412101450
0.000559296128464
0.001353688578226
0.001098831122612
0.001025658749244
0.001019210450123
0.001013965331739
0.001002100555688
0.000997053618337
0.000998744836228
0.001022585018331
0.001023047509355
0.000998765392606
0.000997343221760
0.000995921050914
0.001001968789443
0.001011620931370
0.001020046328339
0.001078393105275
0.001331238940287
0.000655893515752
0.000658720682249
0.001382908618304
0.001126712829497
0.001033930996622
0.001024424216751
0.001016159003203
0.001007869250473
0.001006165994889
0.001007857212781
0.001006823854226
0.000993487342610
0.000992065285574
0.000990643114728
0.001002145642427
0.001011233633368
0.001018201986487
0.001028318575716
0.001088292112653
0.001368300898912
0.000680524543409
0.000697638444974
0.001422852565170
0.001157612063830
0.001064428256962
0.001052188437795
0.001043923224246
0.001035331291288
0.001033625304056
0.001027573755793
0.001002660567977
0.000989324056361
0.000987901999325
0.001004691763778
0.001029604951594
0.001038879574590
0.001045966207530
0.001056082796760
0.001119309609697
0.001417559259755
0.000721627500282
0.000697638444974
0.001472110926014
0.001188571311419
0.001095445754005
0.001079989908362
0.001071533479045
0.001062790600454
0.001053036747629
0.001023410469544
0.000998497281728
0.000985160770112
0.001007237885129
0.001032151072945
0.001057064260761
0.001066338883757
0.001073688133761
0.001086321243668
0.001150253891036
0.001453394528931
0.000721627500282
0.000700122079150
0.001499225587846
0.001207359053390
0.001114233495976
0.001098777650333
0.001083407193773
0.001074664315182
0.001049097978772
0.001019471700687
0.000994558512871
0.001000486055619
0.001025397249742
0.001050310437558
0.001070946850932
0.001082402050946
0.001089751300951
0.001104163638232
0.001168982497217
0.001471108417759
0.000721627500282
0.000705088974974
0.001504192483670
0.001213914222269
0.001120788664855
0.001104189158209
0.001079693533093
0.001070950654502
0.001045384318092
0.001015758040007
0.001000409150386
0.001009342751910
0.001034253946033
0.001059167133849
0.001067233190252
0.001087066666804
0.001094415916809
0.001108828254089
0.001175537666095
0.001475634304133
0.000721627500282
0.000708852183685
0.001509159379495
0.001218973968442
0.001127343833733
0.001108853774066
0.001082190719617
0.001067236993822
0.001041670657412
0.001015858953670
0.001009265846677
0.001018199448202
0.001043110642325
0.001056926422580
0.001063519529572
0.001087091202662
0.001099080532667
0.001113492869947
0.001182092834974
0.001480312549077
0.000721627500282
0.000708852183685
0.001514120958424
0.001223500194265
0.001133899494262
0.001113518739779
0.001086855685330
0.001063523054611
0.001037956718200
0.001024716314230
0.001018123207238
0.001027056808762
0.001046619376376
0.001053212483368
0.001059805590361
0.001083377263450
0.001103745498380
0.001119019891465
0.001188225469388
0.001485279817428
0.000724534674748
0.000708852183685
0.001518646844798
0.001228026080639
0.001139689192878
0.001118183355637
0.001091520301188
0.001060988425201
0.001041413405040
0.001033573010521
0.001026979903529
0.001035913505053
0.001042905715696
0.001049498822688
0.001056091929681
0.001079663602770
0.001105328649747
0.001125575060343
0.001192751355762
0.001490246713253
0.000729501570572
0.000708852183685
0.001520915081741
0.001230294317582
0.001140818082229
0.001119312244987
0.001092249064928
0.001061717188941
0.001047225327412
0.001039384932893
0.001032791825900
0.001030057349364
0.001036649928739
0.001043243035732
0.001049836142725
0.001073407815814
0.001099072862791
0.001128121899908
0.001193776195398
0.001494561609060
0.000733816466379
0.000708852183685
0.001516409963364
0.001225789199204
0.001131339300020
0.001109674715788
0.001081169756273
0.001050344179330
0.001043902213907
0.001036061819388
0.001029468712396
0.001019623701190
0.001022767833255
0.001029360940248
0.001035954047240
0.001059525720330
0.001085190767306
0.001118643117699
0.001184297413189
0.001496920167668
0.000736175024987
0.000708852183685
0.001511904878774
0.001221284114615
0.001121860588902
0.001098595490227
0.001070090530712
0.001036462187961
0.001034747015787
0.001032738730807
0.001026145623815
0.001016300612609
0.001008885841886
0.001015478948879
0.001022072055871
0.001045643728961
0.001073587011118
0.001109164406581
0.001174818702071
0.001499278708586
0.000738533565905
0.000708852183685
0.001514149796743
0.001216779030026
0.001112381877784
0.001087516264666
0.001059011305150
0.001022580196592
0.001020865024418
0.001029415642226
0.001022822535234
0.001012977524028
0.000999786813848
0.001001596957510
0.001008190064502
0.001031761737592
0.001062507785557
0.001099023427625
0.001165339990953
0.001501637249505
0.000740308350321
0.000709801926574
0.001516508355351
0.001212273911649
0.001102903095576
0.001076436956011
0.001047931996495
0.001008698101108
0.001006982928934
0.001022670320153
0.001019499421729
0.001009654410524
0.000996463700344
0.000987714862026
0.000994307969018
0.001017885853262
0.001051428476902
0.001087944118970
0.001155950658896
0.001502142057569
0.000740308350321
0.000712160467492
0.001518866896269
0.001203955009606
0.001093424384458
0.001065357730449
0.001034719376863
0.000994816109739
0.000993100937565
0.001008788328784
0.001016176333148
0.001006331321942
0.000993140611762
0.000979948845903
0.000980425977649
0.001006806627701
0.001040349251340
0.001076864893409
0.001151445574307
0.001497636972980
0.000740308350321
0.000714519013717
0.001521225442494
0.001194476277161
0.001082369384308
0.001054278479960
0.001020837354259
0.000980934087136
0.000979218914962
0.000994906306180
0.001008098072039
0.001003008225884
0.000989817515704
0.000976625749845
0.000966543955046
0.000995727377211
0.001029270000851
0.001065785642919
0.001146940479581
0.001493131878255
0.000740308350321
)
;
    }

    bottomInlet
    {
        type            fixedValue;
        value           nonuniform List<scalar>
400
(
0.000257980531294
0.000257980531294
0.000173424432152
0.000184139390206
0.000184139390206
0.000184139390206
0.000174110014822
0.000174110014822
0.000174110014822
0.000177228406256
0.000189487687732
0.000189487687732
0.000189487687732
0.000184026074401
0.000184139390206
0.000184139390206
0.000184139390206
0.000173424432152
0.000257980531294
0.000000000000000
0.000668724969339
0.000822651204686
0.000553017769661
0.000587185747790
0.000587185747790
0.000576869886885
0.000555203963347
0.000555203963347
0.000567107030511
0.000591981177306
0.000604240458782
0.000604240458782
0.000577742229681
0.000565120022927
0.000587185747790
0.000587185747790
0.000566753493416
0.000577505446681
0.000822651204686
0.000000000000000
0.000668724969339
0.001341837334380
0.001046975812306
0.001040671861300
0.001054440293399
0.001030103824070
0.001010619033495
0.001035495171018
0.001060371308541
0.001085245455336
0.001085434522985
0.001060558385462
0.001030976166865
0.001018353960111
0.001047305322023
0.001056262771968
0.001018202758232
0.001080704206519
0.001369952926063
0.000637323915702
0.000564412101450
0.001205760189782
0.001069109885703
0.001040202520035
0.001033658861058
0.001018110090925
0.001007795689943
0.001039970769751
0.001072145849560
0.001104318354538
0.001103855863514
0.001071680783706
0.001033418804996
0.001010603006338
0.001029100269246
0.001040731152858
0.001039440671953
0.001093601996268
0.001215991331740
0.000545831222927
0.000655893515752
0.001331238940287
0.001060351269979
0.001020046328339
0.001016008315023
0.001009039961905
0.000999293239293
0.001031468319101
0.001036780882572
0.001038202939608
0.001038182497040
0.001036760326194
0.001024916354346
0.001002100555688
0.001013965331739
0.001019210450123
0.001025658749244
0.001116487733231
0.001353688578226
0.000634089654592
0.000655893515752
0.001359120647172
0.001088292112653
0.001029945335717
0.001018201986487
0.001011233633368
0.001002145642427
0.000990643114728
0.000992065285574
0.000993487342610
0.000993466900042
0.000992044729196
0.000990353511305
0.001007869250473
0.001016159003203
0.001024424216751
0.001033930996622
0.001126712829497
0.001382908618304
0.000634089654592
0.000655893515752
0.001394955916347
0.001119309609697
0.001060183782625
0.001045966207530
0.001038879574590
0.001029604951594
0.001004691763778
0.000987901999325
0.000989324056361
0.000989303613793
0.000987881442947
0.001009764954878
0.001035331291288
0.001043923224246
0.001052188437795
0.001064428256962
0.001157612063830
0.001422852565170
0.000634089654592
0.000696996472626
0.001444214277191
0.001150253891036
0.001087948003669
0.001073688133761
0.001066338883757
0.001057064260761
0.001032151072945
0.001007237885129
0.000985160770112
0.000985140327545
0.001007597985960
0.001037224264044
0.001062790600454
0.001071533479045
0.001079989908362
0.001095445754005
0.001188571311419
0.001472110926014
0.000673007417318
0.000721627500282
0.001471328939023
0.001168982497217
0.001105108985639
0.001085561848489
0.001078212598484
0.001070946850932
0.001050310437558
0.001025397249742
0.001000486055619
0.001000844162757
0.001025757350573
0.001055383628658
0.001078853767644
0.001087596646235
0.001097832302925
0.001113288148568
0.001206344336038
0.001499005066582
0.000700122079150
0.000721627500282
0.001476295834847
0.001175537666095
0.001111664154518
0.001085050587818
0.001074498937804
0.001067233190252
0.001059167133849
0.001034253946033
0.001009342751910
0.001009700859048
0.001034614046864
0.001061982669040
0.001078413550272
0.001092261262093
0.001102496918783
0.001118605244378
0.001210870222412
0.001503530952956
0.000705088974974
0.000721627500282
0.001481262730672
0.001182092834974
0.001117663428987
0.001089715203676
0.001070785277124
0.001063519529572
0.001056926422580
0.001043110642325
0.001018199448202
0.001018557555340
0.001043470743156
0.001058269008360
0.001074699889592
0.001096925877951
0.001107161534641
0.001125160413257
0.001215396108785
0.001508381915266
0.000708852183685
0.000724534674748
0.001486051592236
0.001188225469388
0.001122328394700
0.001094380169389
0.001068715122413
0.001059805590361
0.001053212483368
0.001046619376376
0.001027056808762
0.001027414915900
0.001046714674630
0.001054555069149
0.001070985950381
0.001101517826368
0.001111826500354
0.001131716073786
0.001219948911832
0.001513349183617
0.000708852183685
0.000729501570572
0.001490577478610
0.001192751355762
0.001126993010557
0.001099044785247
0.001073379738270
0.001056091929681
0.001049498822688
0.001042905715696
0.001035913505053
0.001036271612191
0.001043001013950
0.001050841408469
0.001067272289701
0.001097804165688
0.001116765405423
0.001138271242664
0.001226504080711
0.001518316079441
0.000708852183685
0.000733816466379
0.001494561609060
0.001193776195398
0.001127721774298
0.001099773548987
0.001074108502011
0.001052005638897
0.001045882741631
0.001039289634638
0.001032697055263
0.001032791825900
0.001039384932893
0.001047225327412
0.001061016502745
0.001091548378731
0.001118912119378
0.001140417956619
0.001229050920275
0.001522630975248
0.000708852183685
0.000736175024987
0.001496920167668
0.001184297413189
0.001116642465642
0.001088694240332
0.001063029193355
0.001038123543413
0.001042559628127
0.001035966521134
0.001029373941759
0.001029468712396
0.001036061819388
0.001043902213907
0.001047134407260
0.001077666283247
0.001107832810722
0.001129338647963
0.001219572138067
0.001524989533856
0.000708852183685
0.000738533565905
0.001499278708586
0.001174818702071
0.001105563240081
0.001077615014771
0.001051949967794
0.001024241552044
0.001037433317903
0.001032643432553
0.001026050853178
0.001026145623815
0.001032738730807
0.001034747015787
0.001033252415891
0.001063784291878
0.001096753585161
0.001119484061576
0.001210093426949
0.001527348074774
0.000708852183685
0.000740308350321
0.001501637249505
0.001165339990953
0.001094484014520
0.001066535789210
0.001038774873776
0.001010359560675
0.001023551326534
0.001029320343972
0.001022727764597
0.001022822535234
0.001029415642226
0.001020865024418
0.001019370424522
0.001052673751857
0.001085674359600
0.001110005350458
0.001205504754128
0.001529706615693
0.000708852183685
0.000740308350321
0.001502142057569
0.001155950658896
0.001083942826860
0.001055456480554
0.001024892778292
0.000996477465191
0.001009669231050
0.001022860996909
0.001019404651092
0.001019499421729
0.001022670320153
0.001006982928934
0.001005488329038
0.001041594443202
0.001074595050944
0.001100526568249
0.001200999635751
0.001532065174300
0.000709801926574
0.000740308350321
0.001497636972980
0.001151445574307
0.001074464115742
0.001044377254993
0.001011010786923
0.000982595473822
0.000995787239681
0.001008979005540
0.001016081562511
0.001016176333148
0.001008788328784
0.000993100937565
0.000991606337669
0.001030515217641
0.001063515825383
0.001091047857131
0.001196494551162
0.001529162360269
0.000712160467492
0.000740308350321
0.001493131878255
0.001146940479581
0.001064985383297
0.001030671387959
0.000997128764319
0.000968713451218
0.000981905217078
0.000995096982937
0.001008287693117
0.001008098072039
0.000994906306180
0.000979218914962
0.000979532700027
0.001019435967151
0.001053478220338
0.001081569124686
0.001191989456436
0.001524657265543
0.000714519013717
)
;
    }

    outlet
    {
        type zeroGradient; 
    }

    walls
    {
        type kqRWallFunction;
        // value uniform .375;  
        value $internalField; 
    }

    reflecting
    {
        type zeroGradient; 
    }

    frontBack
    {
        type empty; 
    }
}


// ************************************************************************* //
