/*--------------------------------*- C++ -*----------------------------------*\
| =========                 |                                                 |
| \\      /  F ield         | OpenFOAM: The Open Source CFD Toolbox           |
|  \\    /   O peration     | Version:  4.x                                   |
|   \\  /    A nd           | Web:      www.OpenFOAM.org                      |
|    \\/     M anipulation  |                                                 |
\*---------------------------------------------------------------------------*/
FoamFile
{
    version     2.0;
    format      ascii;
    class       volScalarField;
    location    "0";
    object      k;
}
// * * * * * * * * * * * * * * * * * * * * * * * * * * * * * * * * * * * * * //

dimensions      [0 2 -2 0 0 0 0];

internalField   uniform .0027;

boundaryField
{
    topInlet
    {
        type            fixedValue;
        value           nonuniform List<scalar>
225
(
0.000087121047719
0.000065279534660
0.000058566117968
0.000058797641952
0.000058797641952
0.000058797641952
0.000063990743031
0.000063990743031
0.000059038997819
0.000062184601763
0.000062184601763
0.000060000968353
0.000087121047719
0.000087121047719
0.000087121047719
0.000329240887840
0.000246699190518
0.000221328383691
0.000222203340594
0.000222203340594
0.000222203340594
0.000241828692385
0.000241828692385
0.000222444696461
0.000235003067920
0.000235003067920
0.000241420624212
0.000329240887840
0.000329240887840
0.000200581722554
0.000759809793217
0.000569323154739
0.000510773356701
0.000520982144387
0.000512792549480
0.000528053447348
0.000558083201514
0.000552834530947
0.000513033905347
0.000542331280945
0.000537487211816
0.000564044588432
0.000759809793217
0.000684505078782
0.000200581722554
0.001030432129371
0.001104623717837
0.001041850373955
0.001050809122074
0.001027472159962
0.001074689242856
0.001094175093279
0.001054374467679
0.001014573842079
0.001053033548772
0.001038204167962
0.001122060179540
0.001492325885309
0.000684505078782
0.000200581722554
0.000884318814384
0.001109950058969
0.001026540066427
0.001021514855422
0.000999655057148
0.001029446317565
0.001055649387402
0.001004170804606
0.000998961853566
0.001015012476000
0.001026416436435
0.001131022389043
0.001344393785008
0.000663750936905
0.000196732972797
0.001066077302416
0.001165710932198
0.001047130882132
0.001033004480212
0.001022746293042
0.001021660672085
0.000991027590345
0.000988752185277
0.001021797575785
0.001033463746878
0.001048041645801
0.001184403783027
0.001521115742591
0.000726787878800
0.000216449652227
0.001113811783230
0.001226172997162
0.001106662914464
0.001083336897272
0.001059749065226
0.001012461657638
0.000996886603223
0.001036746507513
0.001072070157095
0.001086963200146
0.001107434632386
0.001244523988937
0.001613749519266
0.000738655967071
0.000216449652227
0.001124987578230
0.001237586452578
0.001121412413179
0.001080906968152
0.001051393119797
0.001014988252186
0.001016814668080
0.001053165557049
0.001063714211667
0.001097458848218
0.001118646691581
0.001254707487866
0.001624925314266
0.000738655967071
0.000216449652227
0.001129822459354
0.001247769951507
0.001132044874169
0.001091402616223
0.001047430610273
0.001034916317043
0.001034260957003
0.001044809611621
0.001055358266238
0.001096236067310
0.001133396190295
0.001264890986794
0.001636101109266
0.000748666382954
0.000218066199897
0.001129822459354
0.001241020146606
0.001116021521070
0.001072378291041
0.001034558783275
0.001032006854519
0.001018866372800
0.001017388155160
0.001027936809778
0.001068814610850
0.001118081812303
0.001256611490416
0.001642386017044
0.000754951290732
0.000222052908051
0.001133940517724
0.001232034710404
0.001096473585690
0.001050280665019
0.001006871012860
0.001025378921159
0.001012238439440
0.000991132247473
0.001000249039363
0.001045580781123
0.001099164736159
0.001247626054214
0.001647090150459
0.000757777634892
0.000222052908051
0.001137144526919
0.001225914684105
0.001081422780213
0.001032585162801
0.000988012731604
0.001013051856007
0.001007724120317
0.000986617928350
0.000981390758107
0.001030529975646
0.001084113930682
0.001241506027915
0.001650294159654
0.000757777634892
0.000222052908051
0.001138946268002
0.001219969955591
0.001072959117063
0.001021980405442
0.000977407974246
0.001002447098648
0.001005185540141
0.000984079348174
0.000970786000749
0.001022066312496
0.001075650267532
0.001238064495092
0.001652095900737
0.000757777634892
0.000222052908051
0.001139959460797
0.001215898047513
0.001068199652671
0.001016016916094
0.000971444484898
0.000996483609300
0.001003757992549
0.000982651800582
0.000964822511401
0.001017306848104
0.001070890803139
0.001236129180248
0.001653109093532
0.000757777634892
0.000222052908051
0.001140529223206
0.001213608236369
0.001065523198684
0.001012663386469
0.000968090955272
0.000993130079674
0.001002955220403
0.000981849028436
0.000961468981775
0.001014630394116
0.001068214349152
0.001235040868475
0.001652991698331
0.000757777634892
0.000222052908051
)
;
    }

    bottomInlet
    {
        type            fixedValue;
        value           nonuniform List<scalar>
225
(
0.000087121047719
0.000087121047719
0.000087121047719
0.000060000968353
0.000062184601763
0.000062184601763
0.000058797641952
0.000058797641952
0.000058797641952
0.000063990743031
0.000063990743031
0.000062184601763
0.000062184601763
0.000058566117968
0.000000000000000
0.000200581722554
0.000329240887840
0.000329240887840
0.000241420624212
0.000235003067920
0.000235003067920
0.000222203340594
0.000222203340594
0.000232057820952
0.000241828692385
0.000234569982034
0.000235003067920
0.000235003067920
0.000225050120132
0.000000000000000
0.000200581722554
0.000684505078782
0.000759809793217
0.000564044588432
0.000537487211816
0.000542331280945
0.000512792549480
0.000512792549480
0.000548312330081
0.000558083201514
0.000525159190920
0.000542331280945
0.000541133417810
0.000547674084353
0.000286858873088
0.000200581722554
0.000684505078782
0.001492325885309
0.001122060179540
0.001038204167962
0.001053033548772
0.001014644658641
0.001055147499989
0.001094948125589
0.001074689242856
0.001027472159962
0.001051429593154
0.001041850373955
0.001105689675460
0.001023175961514
0.000196732972797
0.000663750936905
0.001344393785008
0.001128626743680
0.001026416436435
0.001021974122089
0.000999260227660
0.001050738810456
0.001067728542351
0.001066570340345
0.001014943210223
0.001021514855422
0.001026540066427
0.001119775358506
0.000952887595683
0.000196732972797
0.000671370837425
0.001519589317788
0.001184403783027
0.001051701672801
0.001033463746878
0.001021797575785
0.000988752185277
0.000991027590345
0.000989869388338
0.001009654230922
0.001033004480212
0.001047130882132
0.001165710932198
0.001019587415105
0.000216449652227
0.000738655967071
0.001613813685913
0.001244523988937
0.001108143607493
0.001083821267896
0.001072070157095
0.001036746507513
0.000996886603223
0.001017175659352
0.001064463066940
0.001086478829522
0.001105953939357
0.001225411997198
0.001113811783230
0.000216449652227
0.000738655967071
0.001624989480913
0.001254707487866
0.001122893106207
0.001082598486989
0.001063714211667
0.001053165557049
0.001016814668080
0.001037103724210
0.001060500557416
0.001096974477593
0.001116586400347
0.001235595496127
0.001124987578230
0.000218066199897
0.000748666382954
0.001636165275913
0.001264890986794
0.001134105165402
0.001093094135060
0.001055358266238
0.001044809611621
0.001034260957003
0.001039630318757
0.001052144611987
0.001094544548473
0.001131335899062
0.001247008951542
0.001129822459354
0.000222052908051
0.000754951290732
0.001642386017044
0.001256611490416
0.001115080840220
0.001074069809878
0.001028128768644
0.001037186147383
0.001026637492765
0.001032006854519
0.001034558783275
0.001067123092013
0.001113020548986
0.001234746397915
0.001129822459354
0.000222052908051
0.000757777634892
0.001647090150459
0.001247626054214
0.001094554450782
0.001051972183856
0.001000440998229
0.001021547190196
0.001020009559405
0.001025378921159
0.001006871012860
0.001043370070977
0.001091863300314
0.001225760961713
0.001133940517724
0.000222052908051
0.000757777634892
0.001650294159654
0.001241506027915
0.001081677897595
0.001034795872946
0.000981582716973
0.001002688908940
0.001015495240282
0.001013051856007
0.000988012731604
0.001028319265500
0.001078986747126
0.001219640935414
0.001137144526919
0.000222052908051
0.000757777634892
0.001652095900737
0.001238064495092
0.001074436902495
0.001024191115588
0.000970977959614
0.000992084151581
0.001012956660106
0.001002447098648
0.000977407974246
0.001019855602351
0.001071745752027
0.001216199402591
0.001138946268002
0.000222052908051
0.000757777634892
0.001653109093532
0.001236129180248
0.001070364994418
0.001018227626240
0.000965014470266
0.000986120662234
0.001007226854201
0.000996483609300
0.000971444484898
0.001015096137958
0.001067673843949
0.001214264087747
0.001139959460797
0.000222052908051
0.000757777634892
0.001652991698331
0.001235040868475
0.001068075183273
0.001014874096614
0.000961660940641
0.000982767132608
0.001003873324575
0.000993130079674
0.000968090955272
0.001012419683971
0.001065384032805
0.001213175775974
0.001140529223206
)
;
    }

    outlet
    {
        type zeroGradient; 
    }

    walls
    {
        type kqRWallFunction;
        // value uniform .375;  
        value $internalField; 
    }

    reflecting
    {
        type zeroGradient; 
    }

    frontBack
    {
        type empty; 
    }
}


// ************************************************************************* //
