/*--------------------------------*- C++ -*----------------------------------*\
| =========                 |                                                 |
| \\      /  F ield         | OpenFOAM: The Open Source CFD Toolbox           |
|  \\    /   O peration     | Version:  4.x                                   |
|   \\  /    A nd           | Web:      www.OpenFOAM.org                      |
|    \\/     M anipulation  |                                                 |
\*---------------------------------------------------------------------------*/
FoamFile
{
    version     2.0;
    format      ascii;
    class       volScalarField;
    location    "0";
    object      k;
}
// * * * * * * * * * * * * * * * * * * * * * * * * * * * * * * * * * * * * * //

dimensions      [0 2 -2 0 0 0 0];

internalField   uniform .0005;

boundaryField
{
    topInlet
    {
        type            fixedValue;
        value           nonuniform List<scalar>
400
(
0.000151165165627
0.000151165165627
0.000113267596377
0.000113267596377
0.000101619036439
0.000101619036439
0.000102020757519
0.000102020757519
0.000102020757519
0.000102020757519
0.000111031392782
0.000111031392782
0.000106435365011
0.000107897527303
0.000107897527303
0.000107897527303
0.000101619036439
0.000151165165627
0.000151165165627
0.000151165165627
0.000370718353957
0.000492733794474
0.000369203925535
0.000369203925535
0.000331234601620
0.000335498355477
0.000333062221295
0.000332544040547
0.000332544040547
0.000343078967698
0.000361914858125
0.000361914858125
0.000336958648038
0.000351699796854
0.000351699796854
0.000340246124766
0.000334961571751
0.000492733794474
0.000492733794474
0.000397757947203
0.000370718353957
0.000923077192393
0.000748570404050
0.000691658917708
0.000620527979846
0.000642665607496
0.000640229473314
0.000622981055364
0.000622981055364
0.000659167840736
0.000678003731163
0.000656804002450
0.000627395662856
0.000658867048873
0.000658867048873
0.000629539502992
0.000657416563924
0.000887249574013
0.000923077192393
0.000397757947203
0.000370718353957
0.001194845841083
0.001290765500852
0.001068702082234
0.000991877598673
0.001029669518206
0.001027233384024
0.000992189919862
0.001020098008464
0.001057412214749
0.001060043481727
0.001022729275442
0.000993320935848
0.001028363036731
0.001031816125393
0.000994023893760
0.001063681692053
0.001293514702142
0.001221930520356
0.000397757947203
0.000344880122559
0.001033711677157
0.001228094471341
0.001093184128551
0.001044134889619
0.001045814626350
0.001031461537359
0.001009071980289
0.001049309371875
0.001097571991588
0.001094305993332
0.001046043373619
0.001010442059949
0.001034231390163
0.001045833739961
0.001044552338603
0.001096897487281
0.001225618058406
0.001056349900030
0.000367480661119
0.000309858006271
0.001063276248558
0.001302391000047
0.001100901416210
0.001029518844658
0.001024312404641
0.001019525171054
0.001000899747301
0.000999768323782
0.001033836101329
0.001034301167184
0.000999788880160
0.000999119270694
0.001012729168454
0.001024331518252
0.001029378115503
0.001114064938860
0.001299914587112
0.001130646428736
0.000390125792173
0.000380071283207
0.001188385462791
0.001337219050581
0.001129287335289
0.001030649720491
0.001021209906244
0.001011826479162
0.001001765006372
0.001002239090364
0.001004372346633
0.000993821995656
0.000991688739387
0.001001659131533
0.001011725701251
0.001021069099131
0.001030508991335
0.001126949706224
0.001337598403932
0.001214950442904
0.000406592042400
0.000400045715863
0.001244744593870
0.001374213747207
0.001164640805607
0.001065905513046
0.001052976439809
0.001043593012727
0.001033182673914
0.001033656757907
0.001008978794162
0.000989058556691
0.000997870330918
0.001033076799075
0.001043492234816
0.001052835632696
0.001065676719687
0.001162368513797
0.001393957535011
0.001271309573983
0.000429224399144
0.000400045715863
0.001289369557077
0.001427499079724
0.001198112582574
0.001099458753866
0.001084111778983
0.001073469440144
0.001062886837727
0.001041844932478
0.001004475150754
0.000990204713006
0.001027574494730
0.001062780962888
0.001073363153616
0.001083882858882
0.001099229960507
0.001195793823689
0.001428822713914
0.001318596893121
0.000429224399144
0.000403233797650
0.001292557638864
0.001452355224688
0.001215964285524
0.001117310456815
0.001101963481932
0.001083164733039
0.001072582130621
0.001037629888456
0.001000260106732
0.001007968491235
0.001045338272959
0.001075798720247
0.001088436177749
0.001100521080038
0.001115868181662
0.001213593504528
0.001445319867214
0.001318596893121
0.000429224399144
0.000406475992408
0.001297930588574
0.001457728174398
0.001222515121176
0.001124401524147
0.001108371327000
0.001079561652341
0.001068564870591
0.001033612628425
0.001004037612512
0.001017549240549
0.001054919022273
0.001071781460216
0.001093482135487
0.001105567037776
0.001122740265742
0.001220335961405
0.001450215754049
0.001322276003942
0.000429224399144
0.000406475992408
0.001303303538283
0.001463101124107
0.001227411008011
0.001131492591479
0.001113417284738
0.001084607610079
0.001064547610560
0.001029595368395
0.001013618361827
0.001027129989864
0.001054144244037
0.001067764200186
0.001098528093225
0.001110612995514
0.001129831333074
0.001225231848240
0.001455235014385
0.001327648953652
0.000429224399144
0.000406475992408
0.001308676487993
0.001468003158107
0.001232306894846
0.001138583658811
0.001118463242475
0.001089653567816
0.001060530350530
0.001033088771630
0.001023199111141
0.001036710739178
0.001050126984006
0.001063746940155
0.001100702061013
0.001115658953251
0.001136922400406
0.001230127735075
0.001460607964094
0.001333021903361
0.000429353765509
0.000406475992408
0.001310094695461
0.001472899044941
0.001237202781681
0.001144863550639
0.001123509200213
0.001094699525554
0.001057742966993
0.001042669520944
0.001032779860456
0.001036220063487
0.001046109723976
0.001059729680124
0.001096684800983
0.001122658940959
0.001144013467737
0.001235023621910
0.001465980913804
0.001338394853071
0.000434726715218
0.000406475992408
0.001310094695461
0.001470565731917
0.001234869468656
0.001138587945306
0.001117233594881
0.001087142733216
0.001049485073418
0.001042500448146
0.001032610787657
0.001024063251372
0.001033952911860
0.001047572868009
0.001084527988868
0.001116915066957
0.001138269593735
0.001228708997934
0.001469265863629
0.001341679802897
0.000438011665044
0.000406475992408
0.001311266709039
0.001465692423319
0.001229996160058
0.001128334489798
0.001106770760384
0.001075157944890
0.001034468434647
0.001038905746241
0.001029016085752
0.001014225912013
0.001018936273090
0.001032556229239
0.001069511350097
0.001106354699510
0.001128016138227
0.001218455542426
0.001471817180372
0.001344231119639
0.000440335778118
0.000406475992408
0.001313818008092
0.001460819148508
0.001225122885248
0.001118081105381
0.001094786055152
0.001063173239658
0.001019451899992
0.001030629648916
0.001025421408770
0.001010631235031
0.001003919738435
0.001017539694584
0.001056655261417
0.001094369994278
0.001117762753810
0.001213020531621
0.001474368479425
0.001346782418692
0.000440335778118
0.000406475992408
0.001316369324834
0.001462263189579
0.001220249576649
0.001107827649873
0.001082801266826
0.001051188451332
0.001004435261222
0.001015613010146
0.001021826706865
0.001007036533125
0.000988903099665
0.001002523055814
0.001044670473091
0.001082385205952
0.001107509298302
0.001208147223023
0.001473194114971
0.001349333735435
0.000440335778118
0.000406574776802
0.001318920641577
0.001464814506321
0.001214127097958
0.001097574194365
0.001070816478500
0.001037718550988
0.000989418622452
0.001000596371376
0.001018232004959
0.001003441831220
0.000983654182431
0.000987506417044
0.001032685684765
0.001070400417626
0.001097255842794
0.001203273914424
0.001468320806372
0.001351885052177
0.000440335778118
0.000409126086468
0.001321471951243
0.001467365815988
0.001203873670886
0.001086724755824
0.001058831723411
0.001022701953864
0.000974402025328
0.000985579774252
0.001005367423041
0.000999847139284
0.000980059490495
0.000972489819919
0.001020700929676
0.001058415662537
0.001086308925301
0.001198400619341
0.001463447511289
0.001352731555135
0.000440335778118
)
;
    }

    bottomInlet
    {
        type            fixedValue;
        value           nonuniform List<scalar>
400
(
0.000151165165627
0.000151165165627
0.000151165165627
0.000103518809372
0.000103040279022
0.000107897527303
0.000107897527303
0.000107897527303
0.000102020757519
0.000102020757519
0.000111031392782
0.000111031392782
0.000107897527303
0.000107897527303
0.000107897527303
0.000102476251266
0.000105602441777
0.000151165165627
0.000000000000000
0.000000000000000
0.000347411883745
0.000492733794474
0.000492733794474
0.000359455138531
0.000332655844203
0.000351699796854
0.000351699796854
0.000338506942942
0.000332544040547
0.000343438532995
0.000361914858125
0.000361914858125
0.000338858902508
0.000351699796854
0.000351699796854
0.000332091816447
0.000361538770935
0.000492733794474
0.000034766463977
0.000000000000000
0.000347411883745
0.000923077192393
0.000923077192393
0.000681910130703
0.000621949222429
0.000658867048873
0.000658867048873
0.000628943957759
0.000622981055364
0.000659527406034
0.000678003731163
0.000656444437152
0.000629295917325
0.000658867048873
0.000658867048873
0.000621385194673
0.000683993763107
0.000923077192393
0.000465109861896
0.000000000000000
0.000347411883745
0.001072545484303
0.001354099880008
0.001088175258833
0.000986433613197
0.001024203997806
0.001032199692027
0.000994869230751
0.001020457573762
0.001057771780047
0.001059683916429
0.001022369710144
0.000995221190317
0.001032550677822
0.001023640282150
0.000985869585441
0.001090258891237
0.001360882556450
0.001007304958698
0.000282246501518
0.000325399845103
0.000931489210118
0.001247664742049
0.001113725307133
0.001037108012612
0.001045575639547
0.001036682660742
0.001011990354852
0.001049774437730
0.001098037057443
0.001097571991588
0.001049309371875
0.001012342314418
0.001036906908450
0.001045556525936
0.001036543984856
0.001115156825501
0.001216112480448
0.000873791186644
0.000267764628817
0.000340745765884
0.001005785738824
0.001321961270755
0.001126468330746
0.001031274045625
0.001024073417838
0.001020522957135
0.001001664966783
0.001041602204742
0.001057142363657
0.001057121807280
0.001041137138887
0.001001889836641
0.001020623456222
0.001024054304227
0.001031414930695
0.001132324277080
0.001324429457315
0.000983109831638
0.000314210266384
0.000340745765884
0.001051965547509
0.001382721012783
0.001154884106426
0.001033492437480
0.001024058002311
0.001012824265243
0.001002126693453
0.000991688739387
0.000993821995656
0.000993801439278
0.000991668183009
0.001002232979982
0.001012924764331
0.001023111293401
0.001033499333440
0.001157231412146
0.001388459683099
0.001025356346477
0.000314210266384
0.000340745765884
0.001082440678496
0.001427574845270
0.001190237576744
0.001068981218504
0.001058371146406
0.001044590798808
0.001033544360996
0.000997870330918
0.000989058556691
0.000989038000313
0.000998230431749
0.001033650647524
0.001044691297896
0.001054877826966
0.001068988114464
0.001192584882464
0.001434304703384
0.001053164689690
0.000314210266384
0.000353227418118
0.001135726011013
0.001480860177787
0.001223662886636
0.001102534459324
0.001088405149264
0.001074521766173
0.001063248524808
0.001027574494730
0.000990204713006
0.000990564813837
0.001027934595561
0.001063354811337
0.001074627758637
0.001087202998808
0.001102541355284
0.001226010192356
0.001487590035900
0.001106450022207
0.000324032517249
0.000374895481296
0.001157394074191
0.001505716322752
0.001241056586995
0.001120164011391
0.001104825781657
0.001084217059067
0.001072943817703
0.001045338272959
0.001007968491235
0.001008328592066
0.001045698373790
0.001077802713495
0.001089700782771
0.001103841219964
0.001120256795999
0.001242530820931
0.001512163111872
0.001131306167172
0.000348888662214
0.000374895481296
0.001158482034390
0.001511089272461
0.001245952473830
0.001127255078723
0.001111916848988
0.001083236584739
0.001068926557672
0.001054919022273
0.001017549240549
0.001017909341380
0.001055279123104
0.001073785453465
0.001094746740509
0.001108887177701
0.001127347863331
0.001247426707766
0.001517119157935
0.001136679116881
0.000351257321184
0.000374895481296
0.001163854984099
0.001516462222171
0.001250848360664
0.001134346146055
0.001117399994803
0.001088282542477
0.001064909297642
0.001054144244037
0.001027129989864
0.001027490090695
0.001054239542291
0.001069768193434
0.001099792698246
0.001113933135439
0.001134438930663
0.001252322594601
0.001522492107644
0.001142052066591
0.000351257321184
0.000374895481296
0.001169227933809
0.001521694632350
0.001255744247499
0.001141437213387
0.001122445952541
0.001093328500215
0.001060892037611
0.001050126984006
0.001036710739178
0.001037070840009
0.001050222282261
0.001065750933404
0.001104838655984
0.001120187639540
0.001141529997994
0.001257218481436
0.001527865057354
0.001146251291109
0.000351257321184
0.000379524522260
0.001174600883518
0.001526590519185
0.001260640134334
0.001148528280719
0.001127491910279
0.001098374457953
0.001059006050427
0.001046109723976
0.001036220063487
0.001036315361741
0.001046205022230
0.001061733673373
0.001101101053969
0.001127278706872
0.001148621065326
0.001262248544132
0.001533238007063
0.001146251291109
0.000351257321184
0.000382809472086
0.001177885833344
0.001529751432002
0.001255481691241
0.001142312586512
0.001119935117941
0.001090817665615
0.001051135845079
0.001042405149892
0.001032515489403
0.001032610787657
0.001042500448146
0.001049576861258
0.001088944241853
0.001120253645864
0.001142728877737
0.001258264673062
0.001536522956889
0.001146251291109
0.000351257321184
0.000384600441630
0.001180437150087
0.001532302748744
0.001250608382643
0.001132059131004
0.001107950329614
0.001078832877288
0.001036119206309
0.001038810447987
0.001028920787498
0.001029016085752
0.001038905746241
0.001034560222488
0.001074411735231
0.001108268857538
0.001132475422229
0.001253391364464
0.001539074273631
0.001146251291109
0.000351257321184
0.000384600441630
0.001182988449140
0.001534854047797
0.001245735107832
0.001121805746586
0.001095965624382
0.001066848172057
0.001021102671654
0.001030820325673
0.001025326110516
0.001025421408770
0.001030629648916
0.001019543687833
0.001062427029999
0.001096284152306
0.001122222037811
0.001248518089654
0.001541625572684
0.001148392201913
0.000351257321184
0.000384600441630
0.001185539765882
0.001537405364540
0.001240861799234
0.001111552291078
0.001083980836056
0.001054863383730
0.001006086032884
0.001015803686903
0.001021731408610
0.001021826706865
0.001015613010146
0.001004527049062
0.001050442241673
0.001084299363980
0.001111968582303
0.001243644781055
0.001544176889427
0.001150943518655
0.000351257321184
0.000384600441630
0.001187355661197
0.001536253618091
0.001235988490635
0.001101298835570
0.001073421697411
0.001042521459569
0.000991069394114
0.001000787048132
0.001018136706705
0.001018232004959
0.001000596371376
0.000989510410292
0.001038457453347
0.001073837758285
0.001101715126795
0.001238771472456
0.001543858882248
0.001153494835397
0.000351257321184
0.000384600441630
0.001187355661197
0.001531380323007
0.001231115195552
0.001091045408498
0.001063168270339
0.001027504862445
0.000976052796990
0.000985770451008
0.001005558099797
0.001005367423041
0.000985579774252
0.000975021974938
0.001026472698258
0.001063584331213
0.001091461699723
0.001233898177373
0.001538985587165
0.001156046145064
0.000353374112566
)
;
    }

    outlet
    {
        type zeroGradient; 
    }

    walls
    {
        type kqRWallFunction;
        // value uniform .375;  
        value $internalField; 
    }

    reflecting
    {
        type zeroGradient; 
    }

    frontBack
    {
        type empty; 
    }
}


// ************************************************************************* //
