/*--------------------------------*- C++ -*----------------------------------*\
| =========                 |                                                 |
| \\      /  F ield         | OpenFOAM: The Open Source CFD Toolbox           |
|  \\    /   O peration     | Version:  4.x                                   |
|   \\  /    A nd           | Web:      www.OpenFOAM.org                      |
|    \\/     M anipulation  |                                                 |
\*---------------------------------------------------------------------------*/
FoamFile
{
    version     2.0;
    format      ascii;
    class       volScalarField;
    location    "0";
    object      k;
}
// * * * * * * * * * * * * * * * * * * * * * * * * * * * * * * * * * * * * * //

dimensions      [0 2 -2 0 0 0 0];

internalField   uniform .0005;

boundaryField
{
    topInlet
    {
        type            fixedValue;
        value           nonuniform List<scalar>
400
(
0.000446360518855
0.000446360518855
0.000368946162118
0.000368946162118
0.000377616155750
0.000377616155750
0.000337403599215
0.000337403599215
0.000337403599215
0.000337403599215
0.000363079562816
0.000363079562816
0.000345042365102
0.000347572401001
0.000347572401001
0.000347572401001
0.000377616155750
0.000446360518855
0.000446360518855
0.000446360518855
0.001094657199195
0.001454944406313
0.001202606709439
0.001202606709439
0.001230867180976
0.001210464320167
0.001100688071656
0.001099791443489
0.001099791443489
0.001129810903623
0.001183484104553
0.001183484104553
0.001107430209375
0.001132937388645
0.001132937388645
0.001187745354862
0.001228093206555
0.001454944406313
0.001454944406313
0.001174499713314
0.001094657199195
0.002725662442337
0.002369192857792
0.002252938274892
0.002305880851622
0.002199948156932
0.002090171908420
0.002060326304507
0.002060326304507
0.002163441185632
0.002217114386562
0.002156705386878
0.002067965070393
0.002122421225409
0.002122421225409
0.002262759025508
0.002278424772008
0.002652476428426
0.002725662442337
0.001174499713314
0.001094657199195
0.003528140940174
0.003970186603442
0.003598014148779
0.003627452786855
0.003446611373452
0.003336835124941
0.003276198065116
0.003359397580739
0.003465725067576
0.003473222909090
0.003366895422253
0.003278155105769
0.003338789806659
0.003436339456004
0.003617182362866
0.003601750812463
0.003975802468882
0.003608116584320
0.001174499713314
0.000956823306544
0.002668571695250
0.003152380674383
0.002963843745665
0.003149589107741
0.002748732068035
0.002575439421310
0.002622686482388
0.002698915006992
0.002776751620116
0.002787210951337
0.002709374338213
0.002636749894906
0.002601446221778
0.002742716562615
0.003146003879271
0.003001665388374
0.003146256698965
0.002724827744015
0.001012985709684
0.000769998034239
0.002711601083954
0.003354604616182
0.002951753862249
0.003023561563120
0.002914178213939
0.002742380377541
0.002775858090014
0.002815811905913
0.002881201612754
0.002881951658052
0.002816172178099
0.002782024435787
0.002766892367681
0.002908162708519
0.003024789832962
0.003171545901509
0.003348480640764
0.002927051685814
0.001031389813018
0.001034420326339
0.003171390060890
0.003839525718810
0.003430069155358
0.002929531142698
0.003011920887261
0.003048331963618
0.003043636888917
0.003059047331979
0.003096434896286
0.003067935642034
0.003030548077727
0.003042303817250
0.003048352556945
0.003013149837509
0.002930759412539
0.003375513120845
0.003718622964811
0.003241620869571
0.001104534226559
0.001123148369597
0.003421741873448
0.004441420085638
0.004061758396376
0.003372399711293
0.003000842519006
0.003037253595363
0.002946501339437
0.002961911782499
0.002926102308292
0.002872022422414
0.002864515774318
0.002945168267771
0.003037274188690
0.003002071469254
0.003362170971007
0.003930663263736
0.003968974777369
0.003491972682129
0.001205068983305
0.001123148369597
0.003619969564517
0.004678117836705
0.004604561932430
0.003819772704077
0.003133650428209
0.002987909217825
0.002854663513797
0.002811333373909
0.002740874096782
0.002702218671551
0.002772677948678
0.002853330442131
0.002986570962567
0.003123416021660
0.003809543963791
0.004527900492396
0.004540072578542
0.003702026773290
0.001205068983305
0.001109281699278
0.003606102894199
0.004760502453220
0.004671158067172
0.003886368838818
0.003200246562951
0.002958266598394
0.002825020894366
0.002743714285427
0.002673255008300
0.002695164910969
0.002765624188097
0.002817085576404
0.002946241966641
0.003302352882356
0.003988480824488
0.004655437745034
0.004611957810094
0.003702026773290
0.001205068983305
0.001095179662747
0.003582733066434
0.004737132625456
0.004453716772766
0.003692009578326
0.003069138094965
0.002970424788336
0.002838002122145
0.002756695513206
0.002708058778647
0.002746215677330
0.002816674954458
0.002830066804182
0.002941213191126
0.003297324106841
0.003814394416618
0.004446183692825
0.004323806880973
0.003686024355462
0.001205068983305
0.001095179662747
0.003559363238670
0.004713762797692
0.004165565843645
0.003497650317833
0.003064109319450
0.002965396012822
0.002850983349923
0.002769676740984
0.002759109545008
0.002797266443691
0.002838733965802
0.002843048031961
0.002936184415611
0.003292295331326
0.003620035156125
0.004158032763704
0.004104131142507
0.003662654527698
0.001205068983305
0.001095179662747
0.003535993410906
0.004429023689225
0.003877414914524
0.003303291057340
0.003059080543935
0.002960367237307
0.002863964577702
0.002803685126322
0.002810160311369
0.002848317210052
0.002851715193581
0.002856029259740
0.002936862724464
0.003287266555812
0.003425675895633
0.003869881834583
0.004080761314743
0.003639284699934
0.001204506299897
0.001095179662747
0.003529824869217
0.004140872760104
0.003589263985403
0.003184028139820
0.003054051768420
0.002955338461792
0.002874501852321
0.002854735892683
0.002861211077730
0.002871171606408
0.002864696421360
0.002869010487519
0.002949843952243
0.003101339190345
0.003231316635140
0.003581730905462
0.004057391486979
0.003615914872169
0.001181136472133
0.001095179662747
0.003529824869217
0.004038324678995
0.003486715904294
0.003174509082751
0.003044532711351
0.002972099699635
0.002890851833817
0.002868151568860
0.002874626753908
0.002891299422419
0.002884824237371
0.002889138303530
0.002969971768254
0.003042593944642
0.003172571389437
0.003498599695858
0.003974745837255
0.003533269222446
0.001098490822409
0.001095179662747
0.003482292233574
0.004000988970300
0.003449380195599
0.003163412374852
0.003037730881204
0.002996516883815
0.002913490576209
0.002868344009473
0.002874819194521
0.002903759845759
0.002907462979763
0.002911777045921
0.002992610510646
0.003037792755059
0.003161474681538
0.003487502987959
0.003871273649344
0.003429797034535
0.001004233194282
0.001095179662747
0.003378820763069
0.003963653520465
0.003412044745764
0.003152315743890
0.003062147896091
0.003020933898702
0.002936129161639
0.002877736339716
0.002875011633799
0.002903952285038
0.002930101565193
0.002934415631352
0.003016516383982
0.003062209769947
0.003150378050577
0.003452907127110
0.003767802178839
0.003326325564030
0.001004233194282
0.001095179662747
0.003275348575158
0.003870044633542
0.003374709037069
0.003141219035991
0.003086565080271
0.003045351082882
0.002958767904031
0.002900375082108
0.002875204074411
0.002904144725650
0.002952740307584
0.002957054373743
0.003040933568162
0.003086626954126
0.003139281342678
0.003415571418415
0.003697517313614
0.003222853376119
0.001004233194282
0.001091173324713
0.003171876387247
0.003766572445631
0.003343465536559
0.003130122328092
0.003110982264450
0.003068897120770
0.002981406646423
0.002923013824499
0.002875396515024
0.002904337166262
0.002956183599337
0.002979693116135
0.003065350752342
0.003111044138306
0.003128184634779
0.003378235709720
0.003660181604919
0.003119381188208
0.001004233194282
0.000987701423764
0.003068404486298
0.003663100544682
0.003332368859435
0.003131251311318
0.003135399380913
0.003091535800377
0.003004045326030
0.002945652504107
0.002893806071032
0.002904529606341
0.002956376039415
0.003002331795742
0.003089767868804
0.003135461254769
0.003131313150917
0.003340900104568
0.003622845999768
0.003085050087062
0.001004233194282
)
;
    }

    bottomInlet
    {
        type            fixedValue;
        value           nonuniform List<scalar>
400
(
0.000446360518855
0.000446360518855
0.000446360518855
0.000376202159572
0.000370815243790
0.000347572401001
0.000347572401001
0.000347572401001
0.000337403599215
0.000337403599215
0.000363079562816
0.000363079562816
0.000347572401001
0.000347572401001
0.000347572401001
0.000373514222246
0.000374651317256
0.000446360518855
0.000000000000000
0.000000000000000
0.001025837851209
0.001454944406313
0.001454944406313
0.001209862706893
0.001224066269016
0.001132937388645
0.001132937388645
0.001110109283860
0.001099791443489
0.001130835491261
0.001183484104553
0.001183484104553
0.001110718293094
0.001132937388645
0.001132937388645
0.001226765247472
0.001208311864577
0.001454944406313
0.000102658418923
0.000000000000000
0.001025837851209
0.002725662442337
0.002725662442337
0.002260194272346
0.002299079939662
0.002122421225409
0.002122421225409
0.002070644144878
0.002060326304507
0.002164465773269
0.002217114386562
0.002155680799240
0.002071253154112
0.002122421225409
0.002122421225409
0.002301778918118
0.002258643430030
0.002725662442337
0.001373376454947
0.000000000000000
0.001025837851209
0.003167012432281
0.004099561397623
0.003583520312802
0.003653503277019
0.003472764912263
0.003345428519534
0.003280834180254
0.003360422168377
0.003466749655213
0.003472198321453
0.003365870834616
0.003281443189487
0.003346035843815
0.003475462397261
0.003656202255476
0.003581969470485
0.004113416548340
0.002974370200597
0.000833417502901
0.000908414761197
0.002414548571490
0.003200776422542
0.002935471597027
0.003183214030356
0.002823946867787
0.002596273482968
0.002639428969391
0.002699665052289
0.002777501665414
0.002776751620116
0.002698915006992
0.002640037978625
0.002595800269268
0.002829962373207
0.003185913008812
0.002929840586654
0.003145758082126
0.002171373604794
0.000665395870544
0.000900842033039
0.002616772513290
0.003403000364341
0.003040430055873
0.003008242346504
0.002989393013690
0.002742176486277
0.002774243302749
0.002852836659916
0.002901980216918
0.002901619944731
0.002852086614618
0.002773768776171
0.002742155949925
0.002995408519111
0.003007012715849
0.003099721099790
0.003409103996579
0.002560422818899
0.000830689163331
0.000900842033039
0.002781119759612
0.003914512016339
0.003483769939355
0.003055695997243
0.003138038793756
0.003048128072354
0.003048190896323
0.003030548077727
0.003067935642034
0.003067575369848
0.003030187805541
0.003049529151580
0.003048107536002
0.002995325772346
0.003037034600570
0.003526990290150
0.003923969226950
0.002710772042472
0.000830689163331
0.000900842033039
0.002916492753032
0.004373731382670
0.004115459180374
0.003528875987877
0.003458270326208
0.003037049704099
0.002951055346843
0.002864515774318
0.002872022422414
0.002871662150227
0.002865194730498
0.002952393602101
0.003037029167747
0.002984247404091
0.003510214591204
0.004158679531168
0.004365194538726
0.002834298949194
0.000830689163331
0.000956286540445
0.003153190504099
0.004610429133737
0.004712696409034
0.003976248980661
0.003447796166565
0.003001159070456
0.002859217521203
0.002772677948678
0.002702218671551
0.002702897627730
0.002773356904858
0.002860555776461
0.003002493623149
0.003271850614093
0.003957587583988
0.004755916759828
0.004601892289793
0.003070996700261
0.000874320395049
0.001052537827279
0.003249441790933
0.004692813750252
0.004822887668161
0.004013943645916
0.003328212342285
0.002971516451026
0.002829574901772
0.002765624188097
0.002695164910969
0.002695843867149
0.002766303144276
0.002821468993744
0.002962164627223
0.003450787474789
0.004036798492502
0.004800301962724
0.004527166966253
0.003153381316776
0.000956705011564
0.001052537827279
0.003244709670991
0.004669443922488
0.004534736739040
0.003819584385424
0.003133853081792
0.002978463120008
0.002842556129551
0.002816674954458
0.002746215677330
0.002746894633510
0.002817353910637
0.002834450221523
0.002957135851708
0.003445758699274
0.003842439232009
0.004512151033603
0.004272405821424
0.003130011489012
0.000946402448697
0.001052537827279
0.003221339843227
0.004646074094724
0.004246585809919
0.003625225124931
0.003088350665703
0.002973434344493
0.002855537357330
0.002838733965802
0.002797266443691
0.002797945399871
0.002838671569946
0.002847431449301
0.002952107076193
0.003440729923759
0.003648079971516
0.004224000104482
0.004249035993660
0.003106641661248
0.000946402448697
0.001052537827279
0.003197970015463
0.004544701526408
0.003958434880799
0.003430865864438
0.003083321890188
0.002968405568978
0.002868518585108
0.002851715193581
0.002848317210052
0.002848996166232
0.002851652797725
0.002860412677080
0.002947078300678
0.003323817330508
0.003453720711023
0.003935849175361
0.004225666165896
0.003088376991180
0.000946402448697
0.001032403655938
0.003174600187699
0.004256550597287
0.003670283951678
0.003236506603945
0.003078293114673
0.002963376793463
0.002877264646971
0.002864696421360
0.002871171606408
0.002871109210552
0.002864634025504
0.002873393904859
0.002959503805104
0.003129458070016
0.003259361450530
0.003653431067717
0.004202296338132
0.003088376991180
0.000946402448697
0.000949758006215
0.003091954537975
0.004105061494045
0.003581514042684
0.003203720389197
0.003095054352516
0.002980138031306
0.002893842041052
0.002868213964716
0.002874689149764
0.002874626753908
0.002868151568860
0.002893521720870
0.002979631621114
0.003096993119225
0.003203658481085
0.003586102279756
0.004119650688408
0.003088376991180
0.000946402448697
0.000877122753166
0.002988482350064
0.004001589306134
0.003544178333989
0.003192623681298
0.003119471536696
0.003004555215486
0.002916480783444
0.002868406405329
0.002874881590377
0.002874819194521
0.002868344009473
0.002916160463262
0.003002554348768
0.003121410303405
0.003192561773186
0.003548766571061
0.004016178500497
0.003088376991180
0.000946402448697
0.000877122753166
0.002885010879559
0.003898117835629
0.003506842884154
0.003181527050336
0.003143888551583
0.003028972230373
0.002939119368874
0.002877236739698
0.002875074029655
0.002875011633799
0.002877736339716
0.002938799048692
0.003026971363656
0.003145827318292
0.003181465142224
0.003511431121226
0.003912707029992
0.003001549385153
0.000946402448697
0.000877122753166
0.002781538691648
0.003794645647718
0.003469507175459
0.003170430342437
0.003168305735763
0.003053389414553
0.002961758111265
0.002899875482089
0.002875266470267
0.002875204074411
0.002900375082108
0.002961437791083
0.003051388547835
0.003170244502472
0.003170368434325
0.003474095412531
0.003809234842081
0.002898077197242
0.000946402448697
0.000877122753166
0.002707892539392
0.003724159307651
0.003432171466763
0.003159333634538
0.003163479340443
0.003077597107762
0.002984396853657
0.002922514224481
0.002875458910879
0.002875396515024
0.002923013824499
0.002984076533475
0.003075805732015
0.003163417466588
0.003159271726426
0.003436759703835
0.003731321786536
0.002794605009331
0.000946402448697
0.000877122753166
0.002707892539392
0.003686823702500
0.003394835861612
0.003148236957414
0.003152382663319
0.003100235787369
0.003007035533264
0.002945152904088
0.002893306471014
0.002893806071032
0.002945652504107
0.003007025025515
0.003100222848478
0.003152320789463
0.003148175049302
0.003399424098684
0.003693986181384
0.002691133108382
0.000860553039233
)
;
    }

    outlet
    {
        type zeroGradient; 
    }

    walls
    {
        type kqRWallFunction;
        // value uniform .375;  
        value $internalField; 
    }

    reflecting
    {
        type zeroGradient; 
    }

    frontBack
    {
        type empty; 
    }
}


// ************************************************************************* //
