/*--------------------------------*- C++ -*----------------------------------*\
| =========                 |                                                 |
| \\      /  F ield         | OpenFOAM: The Open Source CFD Toolbox           |
|  \\    /   O peration     | Version:  4.x                                   |
|   \\  /    A nd           | Web:      www.OpenFOAM.org                      |
|    \\/     M anipulation  |                                                 |
\*---------------------------------------------------------------------------*/
FoamFile
{
    version     2.0;
    format      ascii;
    class       volScalarField;
    location    "0";
    object      k;
}
// * * * * * * * * * * * * * * * * * * * * * * * * * * * * * * * * * * * * * //

dimensions      [0 2 -2 0 0 0 0];

internalField   uniform .01;

boundaryField
{
    topInlet
    {
        type            fixedValue;
        value           nonuniform List<scalar>
30
(
0.000473295363287
0.001442268458466
0.001443306739554
0.001237562228926
0.001146329757260
0.001121946635226
0.001109984261241
0.001101367795258
0.001095936960633
0.001079078376395
0.001057747617518
0.001035506377070
0.001017332456281
0.001011472209853
0.001012384682219
0.001034530624141
0.001053165557049
0.001059025803477
0.001068092849021
0.001090905083077
0.001100071901816
0.001111806141796
0.001130979023380
0.001227492214382
0.001407752589334
0.001595058684112
0.001195586398172
0.000734763746090
0.000393870058574
0.000138118705000
)
;
    }

    bottomInlet
    {
        type            fixedValue;
        value           nonuniform List<scalar>
30
(
0.000138118705000
0.000393870058574
0.000734763746090
0.001195586398172
0.001595306627109
0.001408665962424
0.001227492214382
0.001131756123935
0.001115088163512
0.001091723791384
0.001071546036133
0.001065013696200
0.001059025803477
0.001053165557049
0.001034530624141
0.001012384682219
0.001023817754011
0.001045961702240
0.001056296238188
0.001062182232345
0.001068159429274
0.001077283751973
0.001096249309774
0.001112553131292
0.001125264714391
0.001146329757260
0.001237562228926
0.001443306739554
0.001442268458466
0.000473295363287
)
;
    }

    outlet
    {
        type zeroGradient; 
    }

    walls
    {
        type kqRWallFunction;
        // value uniform .375;  
        value $internalField; 
    }

    reflecting
    {
        type zeroGradient; 
    }

    frontBack
    {
        type empty; 
    }
}


// ************************************************************************* //
