/*--------------------------------*- C++ -*----------------------------------*\
| =========                 |                                                 |
| \\      /  F ield         | OpenFOAM: The Open Source CFD Toolbox           |
|  \\    /   O peration     | Version:  4.x                                   |
|   \\  /    A nd           | Web:      www.OpenFOAM.org                      |
|    \\/     M anipulation  |                                                 |
\*---------------------------------------------------------------------------*/
FoamFile
{
    version     2.0;
    format      ascii;
    class       volScalarField;
    location    "0";
    object      k;
}
// * * * * * * * * * * * * * * * * * * * * * * * * * * * * * * * * * * * * * //

dimensions      [0 2 -2 0 0 0 0];

internalField   uniform .0005;

boundaryField
{
    topInlet
    {
        type            fixedValue;
        value           nonuniform List<scalar>
100
(
0.000257905362142
0.000250297928521
0.000193247699239
0.000174059283465
0.000174059283465
0.000189432475702
0.000184085736538
0.000173373900558
0.000257905362142
0.000257905362142
0.000368674454067
0.000917724833346
0.000657982185917
0.000635406550994
0.000642167098500
0.000676983046281
0.000657528924841
0.000622043927680
0.000925332266967
0.000395804219367
0.000368674454067
0.001342583299328
0.001054018094433
0.001029534479249
0.001075623421387
0.001066630673566
0.001036902002983
0.001063173945243
0.001340110999580
0.000395804219367
0.000348250202764
0.001458417767325
0.001062260998582
0.001002790005596
0.000994950865768
0.000994971422146
0.001001427572163
0.001063094935618
0.001455945467578
0.000388209552347
0.000397840123974
0.001570894987868
0.001129798941518
0.001059149318461
0.001025036689809
0.000996512010821
0.001059043561248
0.001127522594949
0.001566258468019
0.000427116112780
0.000404234948157
0.001621984513228
0.001166950308383
0.001078209329013
0.001015932122204
0.001033838778016
0.001090278559268
0.001164570303584
0.001615154970366
0.000427116112780
0.000404234948157
0.001633625966353
0.001181958182996
0.001082449344708
0.001027345490254
0.001045516948642
0.001094255006893
0.001179770544947
0.001626796423491
0.000427116112780
0.000404234948157
0.001641962394728
0.001184522675061
0.001079360324153
0.001037256065641
0.001027756721081
0.001076494779331
0.001177905389810
0.001636114705185
0.000436082095698
0.000404234948157
0.001647490238826
0.001168291898203
0.001053393324327
0.001029467557307
0.000999838728929
0.001044795587796
0.001155689605088
0.001641642549283
0.000438172914314
0.000405375132735
0.001653018082923
0.001146076113481
0.001022595772587
0.001004233288978
0.000992050220596
0.001018828587969
0.001137453820981
0.001647170393380
0.000438172914314
)
;
    }

    bottomInlet
    {
        type            fixedValue;
        value           nonuniform List<scalar>
100
(
0.000257905362142
0.000257905362142
0.000173373900558
0.000184085736538
0.000174059283465
0.000189432475702
0.000184085736538
0.000173373900558
0.000257905362142
0.000000000000000
0.000395804219367
0.000925332266967
0.000622043927680
0.000657528924841
0.000642526663798
0.000676623480984
0.000657879131620
0.000622043927680
0.000925332266967
0.000000000000000
0.000395804219367
0.001340110999580
0.001063173945243
0.001036902002983
0.001076088487241
0.001075623421387
0.001037125752971
0.001065265684265
0.001337744177830
0.000308149650755
0.000388209552347
0.001455945467578
0.001059874587631
0.001002689729567
0.001001756935071
0.001001736378694
0.001002790005596
0.001065481346570
0.001458417767325
0.000361600351315
0.000388209552347
0.001564153914571
0.001127522594949
0.001059043561248
0.000996512010821
0.000996872111652
0.001059149318461
0.001129798941518
0.001570894987868
0.000361600351315
0.000427116112780
0.001615243439931
0.001164570303584
0.001078103571799
0.001033838778016
0.001034198878847
0.001090384316481
0.001164001433522
0.001621937779874
0.000404234948157
0.000427116112780
0.001626884893056
0.001179770544947
0.001082080019424
0.001045516948642
0.001045612246896
0.001094624332177
0.001179009308134
0.001633579232999
0.000404234948157
0.000436082095698
0.001636114705185
0.001177905389810
0.001078990998869
0.001037160767386
0.001037256065641
0.001076864104615
0.001180093027859
0.001642897514693
0.000404234948157
0.000438172914314
0.001641642549283
0.001155689605088
0.001053023999043
0.001029372259053
0.001029467557307
0.001045278273021
0.001157877243137
0.001648425358791
0.000404234948157
0.000438172914314
0.001647170393380
0.001137453820981
0.001022113087362
0.001004423965735
0.001004233288978
0.001019311273195
0.001140247630322
0.001653953202888
0.000405375132735
)
;
    }

    outlet
    {
        type zeroGradient; 
    }

    walls
    {
        type kqRWallFunction;
        // value uniform .375;  
        value $internalField; 
    }

    reflecting
    {
        type zeroGradient; 
    }

    frontBack
    {
        type empty; 
    }
}


// ************************************************************************* //
