/*--------------------------------*- C++ -*----------------------------------*\
| =========                 |                                                 |
| \\      /  F ield         | OpenFOAM: The Open Source CFD Toolbox           |
|  \\    /   O peration     | Version:  2.3.0                                 |
|   \\  /    A nd           | Web:      www.OpenFOAM.org                      |
|    \\/     M anipulation  |                                                 |
\*---------------------------------------------------------------------------*/
FoamFile
{
    version     2.0;
    format      ascii;
    class       volScalarField;
    location    "0";
    object      omega;
}
// * * * * * * * * * * * * * * * * * * * * * * * * * * * * * * * * * * * * * //

dimensions      [0 0 -1 0 0 0 0];

internalField   uniform 1; 
// internalField      uniform 9.9; 

boundaryField
{
    walls
    {
        type            omegaWallFunction;
        value           $internalField;
    }
    topInlet
    {
        type            fixedValue;
        value           nonuniform List<scalar>
100
(
0.481782965584663
0.474624204680349
0.417040680647811
0.395794587025606
0.395794587025606
0.412903412594008
0.407034596667104
0.395014569987178
0.481782965584663
0.481782965584663
0.576026916611167
0.908819206449461
0.769534903253730
0.756218153640032
0.760230483899738
0.780566936049201
0.769269804656662
0.748224254426138
0.912578237890060
0.596844868814866
0.576026916611167
1.099238358771553
0.973969344994671
0.962590791210705
0.983900949917166
0.979779366086606
0.966028882945531
0.978190447059562
1.098225796283151
0.596844868814866
0.559843891176332
1.145677088272645
0.977770371162806
0.950005792106891
0.946285252548687
0.946295027954411
0.949360213484140
0.978154099340412
1.144705604432804
0.591091022696413
0.598377900307692
1.189035528939967
1.008374457910580
0.976337229964656
0.960485825417392
0.947027354271916
0.976288484579839
1.007358096931918
1.187279504252146
0.620003630233025
0.603167848398056
1.208216065902529
1.024819631713267
0.985082938696668
0.956210703759014
0.964600902038787
0.990580992822535
1.023774034260504
1.205669719835986
0.620003630233025
0.603167848398056
1.212544172274760
1.031388561453032
0.987017938153618
0.961566919786792
0.970033635384884
0.992385764812961
1.030433641944910
1.210006934336281
0.620003630233025
0.603167848398056
1.215634054827139
1.032506855935899
0.985608589521171
0.966193799957582
0.961759350863123
0.984299396219488
1.029618789081223
1.213467442771698
0.626477362821889
0.603167848398056
1.217678617264412
1.025408556811931
0.973680641634700
0.962559505473024
0.948606797380347
0.969698937307856
1.019863051874654
1.215515649571977
0.627977406347273
0.604017896639786
1.219719752496643
1.015612377894799
0.959341542584638
0.950689202673687
0.944904862161371
0.957572832306888
1.011784778934178
1.217560410838774
0.627977406347273
)
;
    }

    bottomInlet
    {
        type            fixedValue;
        value           nonuniform List<scalar>
100
(
0.481782965584663
0.481782965584663
0.395014569987178
0.407034596667104
0.395794587025606
0.412903412594008
0.407034596667104
0.395014569987178
0.481782965584663
0.000000000000000
0.596844868814866
0.912578237890060
0.748224254426138
0.769269804656662
0.760443290073831
0.780359617666980
0.769474637956258
0.748224254426138
0.912578237890060
0.000000000000000
0.596844868814866
1.098225796283151
0.978190447059562
0.966028882945531
0.984113630896733
0.983900949917166
0.966133105567683
0.979152243442498
1.097255558220904
0.526625754857889
0.591091022696413
1.144705604432804
0.976671453902336
0.949958292037387
0.949516319798824
0.949506577557099
0.950005792106891
0.979251352775477
1.145677088272645
0.570473764675977
0.591091022696413
1.186481573019212
1.007358096931918
0.976288484579839
0.947027354271916
0.947198448313290
0.976337229964656
1.008374457910580
1.189035528939967
0.570473764675977
0.620003630233025
1.205702739458437
1.023774034260504
0.985034626101745
0.964600902038787
0.964768879557109
0.990629034923335
1.023523956812673
1.208198659942402
0.603167848398056
0.620003630233025
1.210039835604630
1.030433641944910
0.986849541460871
0.970033635384884
0.970077843374865
0.992553222229868
1.030101149072608
1.212526828445093
0.603167848398056
0.626477362821890
1.213467442771698
1.029618789081223
0.985439951992218
0.966149414245880
0.966193799957582
0.984468229123488
1.030574463623753
1.215980165637629
0.603167848398056
0.627977406347273
1.215515649571977
1.019863051874654
0.973509937873607
0.962514952168358
0.962559505473024
0.969922907101022
1.020827859545078
1.218024147097099
0.603167848398056
0.627977406347273
1.217560410838774
1.011784778934178
0.959115101864922
0.950779453480774
0.950689202673687
0.957799637646385
1.013026587651764
1.220064704267407
0.604017896639786
)
;
    }
    outlet
    {
        type            zeroGradient;
    }

    reflecting 
    {
        type zeroGradient; 
    }
    frontBack 
    {
        type            empty;
    }
}


// ************************************************************************* //