/*--------------------------------*- C++ -*----------------------------------*\
| =========                 |                                                 |
| \\      /  F ield         | OpenFOAM: The Open Source CFD Toolbox           |
|  \\    /   O peration     | Version:  4.x                                   |
|   \\  /    A nd           | Web:      www.OpenFOAM.org                      |
|    \\/     M anipulation  |                                                 |
\*---------------------------------------------------------------------------*/
FoamFile
{
    version     2.0;
    format      ascii;
    class       volVectorField;
    object      U;
}
// * * * * * * * * * * * * * * * * * * * * * * * * * * * * * * * * * * * * * //

dimensions      [0 1 -1 0 0 0 0];

internalField   uniform (0 0 0);

boundaryField
{
    topInlet
    {
        type            fixedValue;
        value           nonuniform List<vector>
20
(
(0.246721684526207 -0.006103796153919 -0.000075254637659)
(0.581919025273331 -0.015040812288885 0.000756988559924)
(0.607430507849316 -0.015767637167089 0.002482945527630)
(0.617178821509222 -0.016651759254076 0.003329560034908)
(0.624557791506513 -0.017567869414791 0.004282392191978)
(0.634563628407999 -0.018180010697668 0.004795205502914)
(0.646591333030548 -0.018440850100699 0.005083955849795)
(0.654301089963042 -0.018548252893286 0.004952747576109)
(0.661112406076428 -0.018678625948147 0.004716713792026)
(0.671226978079849 -0.018935117400078 0.004631956876453)
(0.666368537894784 -0.018874655429816 0.004937777871388)
(0.658097877913307 -0.018687399696060 0.005102056954693)
(0.647445906051526 -0.018374020520968 0.005027257403796)
(0.634596781736125 -0.018016411107127 0.004647367472080)
(0.623929683881429 -0.017459899122601 0.003654275366049)
(0.607741668960216 -0.015880169600996 0.002690237415804)
(0.584188704688292 -0.014975130347791 0.001283818286328)
(0.439277191455331 -0.011600568783407 0.000615637379379)
(0.209137825245941 -0.005716922737501 0.000491439818142)
(0.065522317365142 -0.001791096495902 0.000153966771397)
)
;
    }

    bottomInlet
    {
        type            fixedValue;
        value           nonuniform List<vector>
20
(
(0.065522317365142 0.001791096495902 0.000153966771397)
(0.209137825245941 0.005716922737501 0.000491439818142)
(0.439277191455331 0.011600568783407 0.000615637379379)
(0.584817739004521 0.015092275099141 0.000798327538654)
(0.607741668960216 0.015880169600996 0.002690237415804)
(0.619402119172124 0.016940509469252 0.003848743387518)
(0.633429950731549 0.018137244320280 0.004751543770335)
(0.646774143506159 0.018443586059177 0.005087233300056)
(0.658097877913307 0.018687399696060 0.005102056954693)
(0.666368537894784 0.018874655429816 0.004937777871388)
(0.671254873479716 0.018936164824261 0.004633159917944)
(0.666315284854216 0.018873985078339 0.004941097707275)
(0.657817637307808 0.018680293184804 0.005104405282367)
(0.647292542754016 0.018368235108769 0.005021350868436)
(0.635948136060043 0.018036635600867 0.004671594730206)
(0.626149500350380 0.017750465834219 0.004214025091893)
(0.619232531894560 0.016887355207664 0.003241349038280)
(0.611380795544924 0.015662860344762 0.001753201825976)
(0.581406951889502 0.014945449114454 0.001152208476493)
(0.246721684526207 0.006103796153919 -0.000075254637659)
)
;
    }

    outlet
    {
        type zeroGradient; 
    }

    walls
    {
        type noSlip; 
    }

    reflecting
    {
        type zeroGradient; 
    }

    frontBack
    {
        type empty; 
    }
}

// ************************************************************************* //
