/*--------------------------------*- C++ -*----------------------------------*\
| =========                 |                                                 |
| \\      /  F ield         | OpenFOAM: The Open Source CFD Toolbox           |
|  \\    /   O peration     | Version:  4.x                                   |
|   \\  /    A nd           | Web:      www.OpenFOAM.org                      |
|    \\/     M anipulation  |                                                 |
\*---------------------------------------------------------------------------*/
FoamFile
{
    version     2.0;
    format      ascii;
    class       volVectorField;
    object      U;
}
// * * * * * * * * * * * * * * * * * * * * * * * * * * * * * * * * * * * * * //

dimensions      [0 1 -1 0 0 0 0];

internalField   uniform (0 0 0);

boundaryField
{
    topInlet
    {
        type            fixedValue;
        value           nonuniform List<vector>
30
(
(0.164734245017959 -0.004075459573366 -0.000050246965291)
(0.502016055217061 -0.012978216405273 0.000418062879432)
(0.588613508678023 -0.015156207040485 0.000868588582616)
(0.606912265888066 -0.015580213266063 0.002137698802010)
(0.614169891091247 -0.016357964731062 0.002923865801896)
(0.621106739266432 -0.017115415208084 0.003398990512254)
(0.625526051543321 -0.017668858425560 0.004056816014607)
(0.630338653642685 -0.017952683568431 0.004571027191349)
(0.638233566245966 -0.018070839560311 0.004712568223289)
(0.645601329026587 -0.018304436477101 0.004956216551128)
(0.651841286895516 -0.018517288790532 0.005106093608791)
(0.655148715188437 -0.018558922834681 0.004899905961578)
(0.659426542895736 -0.018635874807038 0.004730840792479)
(0.666169388537775 -0.018806863976752 0.004674337877812)
(0.670485108812800 -0.018926474994796 0.004681147644819)
(0.667191852078387 -0.018885019342812 0.004886451826074)
(0.663155467455381 -0.018815653119386 0.005059675953334)
(0.656412621813343 -0.018644663949672 0.005116178868001)
(0.649437721022930 -0.018449158906881 0.005103968883996)
(0.641471178391538 -0.018148632420624 0.004797150587065)
(0.632222519783221 -0.017980877683247 0.004604801391390)
(0.625018866941639 -0.017602469620920 0.003928924161513)
(0.616909599730292 -0.016604692830859 0.003045964869050)
(0.607201833583914 -0.015684936370761 0.002330605409950)
(0.591350951075281 -0.015079800771835 0.001490872751146)
(0.573112018991486 -0.014856942386262 0.000759760038307)
(0.416163558631391 -0.011028746718376 0.000622687461201)
(0.255767703197804 -0.006991581729467 0.000601012434735)
(0.137104260758560 -0.003747836933932 0.000322172676772)
(0.048078452610753 -0.001314256751934 0.000112976531050)
)
;
    }

    bottomInlet
    {
        type            fixedValue;
        value           nonuniform List<vector>
30
(
(0.048078452610753 0.001314256751934 0.000112976531050)
(0.137104260758560 0.003747836933932 0.000322172676772)
(0.255767703197804 0.006991581729467 0.000601012434735)
(0.416163558631391 0.011028746718376 0.000622687461201)
(0.573275325552336 0.014887354886774 0.000633719499212)
(0.591952540230201 0.015191834424292 0.001026564268956)
(0.607201833583914 0.015684936370761 0.002330605409950)
(0.616178664257160 0.016520841942714 0.003077360019513)
(0.621931819734831 0.017248332136077 0.004061519055464)
(0.631438135760146 0.018062105934366 0.004674832290135)
(0.639652212621142 0.018336998583152 0.004959550386068)
(0.649148405459063 0.018479119483057 0.005129799380746)
(0.656412621813343 0.018644663949672 0.005116178868001)
(0.663155467455381 0.018815653119386 0.005059675953334)
(0.667191852078387 0.018885019342812 0.004886451826074)
(0.670485108812800 0.018926474994796 0.004681147644819)
(0.668784930928906 0.018905073085273 0.004787138053885)
(0.665491970670612 0.018863621165343 0.004992423752589)
(0.659553281108167 0.018724306693061 0.005089861136059)
(0.652780809926619 0.018552566260947 0.005146612303381)
(0.644575390553504 0.018410679319220 0.005047813767816)
(0.636480920665852 0.018252337820240 0.004869046863275)
(0.629857723464759 0.018002487129077 0.004613965307888)
(0.623109789921057 0.017391671600641 0.004160599316934)
(0.617985776668603 0.016757387043744 0.003533042140546)
(0.614169891091247 0.016357964731062 0.002923865801896)
(0.606912265888066 0.015580213266063 0.002137698802010)
(0.588613508678023 0.015156207040485 0.000868588582616)
(0.502016055217061 0.012978216405273 0.000418062879432)
(0.164734245017959 0.004075459573366 -0.000050246965291)
)
;
    }

    outlet
    {
        type zeroGradient; 
    }

    walls
    {
        type noSlip; 
    }

    reflecting
    {
        type zeroGradient; 
    }

    frontBack
    {
        type empty; 
    }
}

// ************************************************************************* //
