/*--------------------------------*- C++ -*----------------------------------*\
| =========                 |                                                 |
| \\      /  F ield         | OpenFOAM: The Open Source CFD Toolbox           |
|  \\    /   O peration     | Version:  4.x                                   |
|   \\  /    A nd           | Web:      www.OpenFOAM.org                      |
|    \\/     M anipulation  |                                                 |
\*---------------------------------------------------------------------------*/
FoamFile
{
    version     2.0;
    format      ascii;
    class       volVectorField;
    object      U;
}
// * * * * * * * * * * * * * * * * * * * * * * * * * * * * * * * * * * * * * //

dimensions      [0 1 -1 0 0 0 0];

internalField   uniform (0 0 0);

boundaryField
{
    topInlet
    {
        type            fixedValue;
        value           nonuniform List<vector>
400
(
(0.056631670450000 -0.001333192450000 0.000000000000000)
(0.056631670450000 -0.001333192450000 0.000000000000000)
(0.056631670450000 -0.001333192450000 0.000000000000000)
(0.060671367250000 -0.001421475350000 0.000000000000000)
(0.060671367250000 -0.001421475350000 0.000000000000000)
(0.061041592350000 -0.001523533600000 0.000000000000000)
(0.062311803078070 -0.001652834774627 0.000000000000000)
(0.063127502100000 -0.001722019300000 0.000000000000000)
(0.063127502100000 -0.001722019300000 0.000000000000000)
(0.063127502100000 -0.001722019300000 0.000000000000000)
(0.063852367050000 -0.001719103350000 0.000000000000000)
(0.063852367050000 -0.001719103350000 0.000000000000000)
(0.061483207950000 -0.001582556450000 0.000000000000000)
(0.061483207950000 -0.001582556450000 0.000000000000000)
(0.061483207950000 -0.001582556450000 0.000000000000000)
(0.061041592350000 -0.001523533600000 0.000000000000000)
(0.056631670450000 -0.001333192450000 0.000000000000000)
(0.056631670450000 -0.001333192450000 0.000000000000000)
(0.056631670450000 -0.001333192450000 0.000000000000000)
(0.056631670450000 -0.001333192450000 0.000000000000000)
(0.074124609484947 -0.001745001850365 0.000000000000000)
(0.184595027250000 -0.004345637250000 0.000000000000000)
(0.184595027250000 -0.004345637250000 0.000000000000000)
(0.197762711250000 -0.004633401750000 0.000000000000000)
(0.197762711250000 -0.004633401750000 0.000000000000000)
(0.198969486750000 -0.004966068000000 0.000000000000000)
(0.201237559878069 -0.005228735574627 0.000000000000000)
(0.205768660500000 -0.005613046500000 0.000000000000000)
(0.205768660500000 -0.005613046500000 0.000000000000000)
(0.206616147854639 -0.005609637270803 0.000000000000000)
(0.208131410250000 -0.005603541750000 0.000000000000000)
(0.208131410250000 -0.005603541750000 0.000000000000000)
(0.202721636237647 -0.005354609353795 0.000000000000000)
(0.200408964750000 -0.005158457250000 0.000000000000000)
(0.200145783528205 -0.005123282528417 0.000000000000000)
(0.198969486750000 -0.004966068000000 0.000000000000000)
(0.184595027250000 -0.004345637250000 0.000000000000000)
(0.184595027250000 -0.004345637250000 0.000000000000000)
(0.184595027250000 -0.004345637250000 0.000000000000000)
(0.084265831673736 -0.001983741070813 0.000000000000000)
(0.074124609484947 -0.001745001850365 0.000000000000000)
(0.251849359435714 -0.005928902712370 0.000000000000000)
(0.345816465999999 -0.008141026000000 0.000000000000000)
(0.365697610463449 -0.008575505411562 0.000000000000000)
(0.370484529999999 -0.008680118000000 0.000000000000000)
(0.372745277999999 -0.009303328000000 0.000000000000000)
(0.376270561128069 -0.009734024324627 0.000000000000000)
(0.385482707999999 -0.010515364000000 0.000000000000000)
(0.385482707999999 -0.010515364000000 0.000000000000000)
(0.388393771604639 -0.010503653520803 0.000000000000000)
(0.389909033999999 -0.010497558000000 0.000000000000000)
(0.388203611480428 -0.010504418487317 0.000000000000000)
(0.382435683737647 -0.010256926853795 0.000000000000000)
(0.375441965999999 -0.009663746000000 0.000000000000000)
(0.373921574778204 -0.009460542528417 0.000000000000000)
(0.371807682841727 -0.009044865456370 0.000000000000000)
(0.350912674826324 -0.008252397748046 0.000000000000000)
(0.345816465999999 -0.008141026000000 0.000000000000000)
(0.262013102659788 -0.006168172110966 0.000000000000000)
(0.084265831673736 -0.001983741070813 0.000000000000000)
(0.074124609484947 -0.001745001850365 0.000000000000000)
(0.251849359435714 -0.005928902712370 0.000000000000000)
(0.498798141593433 -0.011742438659540 0.000000000000000)
(0.568822542813449 -0.013357363761562 0.000000000000000)
(0.589262563803713 -0.014099398766328 0.000000000000000)
(0.592712950981285 -0.014904937367091 0.000000000000000)
(0.596796855978070 -0.015410294674627 0.000000000000000)
(0.609175923334322 -0.016460240643142 0.000000000000000)
(0.614415942224629 -0.016681761896974 0.000000000000000)
(0.617417701754639 -0.016669686570803 0.000000000000000)
(0.617629375310439 -0.016668835061145 0.000000000000000)
(0.614627615780429 -0.016680910387317 0.000000000000000)
(0.608859688037648 -0.016433418753795 0.000000000000000)
(0.596480348224757 -0.015383449676533 0.000000000000000)
(0.592863894828205 -0.014925111328417 0.000000000000000)
(0.589422089591728 -0.014143374506370 0.000000000000000)
(0.568527081576325 -0.013350906798046 0.000000000000000)
(0.508956254558688 -0.011981575513599 0.000000000000000)
(0.262013102659788 -0.006168172110966 0.000000000000000)
(0.084265831673736 -0.001983741070813 0.000000000000000)
(0.074124609484947 -0.001745001850365 0.000000000000000)
(0.252565500859397 -0.006194784715792 0.000000000000000)
(0.500542909258316 -0.012390218981839 0.000000000000000)
(0.582966087420207 -0.014166242058923 0.000000000000000)
(0.604373050405338 -0.014645944286378 0.000000000000000)
(0.612753540986347 -0.015251097558837 0.000000000000000)
(0.617428175028069 -0.016667378324627 0.000000000000000)
(0.624142957082481 -0.017476319206251 0.000000000000000)
(0.629051845731086 -0.018048007127071 0.000000000000000)
(0.632843081758377 -0.018465646856381 0.000000000000000)
(0.632610572278311 -0.018323230495557 0.000000000000000)
(0.628819336251020 -0.017905590766246 0.000000000000000)
(0.622982835551064 -0.017431113644658 0.000000000000000)
(0.617044113553135 -0.016655181197510 0.000000000000000)
(0.612800334905033 -0.015267474077691 0.000000000000000)
(0.605586346733309 -0.014577057436940 0.000000000000000)
(0.583611003887858 -0.014172054711183 0.000000000000000)
(0.510743334242548 -0.012645065029644 0.000000000000000)
(0.262771579554405 -0.006449772015148 0.000000000000000)
(0.084283930318093 -0.001990460558978 0.000000000000000)
(0.074433363866194 -0.001859633165824 0.000000000000000)
(0.252898398259397 -0.006318379615792 0.000000000000000)
(0.500715905352393 -0.012967964564280 0.000000000000000)
(0.583091844670207 -0.014878155108923 0.000000000000000)
(0.609278153962926 -0.015833090160853 0.000000000000000)
(0.621066025848066 -0.016159761454010 0.000000000000000)
(0.627946716190182 -0.017109213988518 0.000000000000000)
(0.632608864232481 -0.017968091406251 0.000000000000000)
(0.641382266835079 -0.018364645783306 0.000000000000000)
(0.646499529858377 -0.018722192106381 0.000000000000000)
(0.646536062778311 -0.018726216545557 0.000000000000000)
(0.641460324102998 -0.018366788405958 0.000000000000000)
(0.633183522898111 -0.017939969264772 0.000000000000000)
(0.628137193953135 -0.017106035997510 0.000000000000000)
(0.621216119889810 -0.016159130200530 0.000000000000000)
(0.608770755183309 -0.015766434936940 0.000000000000000)
(0.583842234244451 -0.014899934137816 0.000000000000000)
(0.510869091492548 -0.013356978079644 0.000000000000000)
(0.262912346697083 -0.007119054062457 0.000000000000000)
(0.084555036854359 -0.002289553481156 0.000000000000000)
(0.074330873807773 -0.002028941306448 0.000147860975000)
(0.252665585321724 -0.006857829977634 0.000147860975000)
(0.500461909902393 -0.013567577364280 0.000147860975000)
(0.585865000195038 -0.015941763537935 0.000207919050000)
(0.612077673812926 -0.016900689585853 0.000207919050000)
(0.624083190273066 -0.017476523979010 0.000422746450000)
(0.636673625365182 -0.017485899813518 0.000422746450000)
(0.640469176256410 -0.018401101454422 0.000422746450000)
(0.650998321760079 -0.018741120783306 0.000474001950000)
(0.659098783668362 -0.018963473341084 0.000474001950000)
(0.658496257036281 -0.018924834413736 0.000381296350000)
(0.650395795127998 -0.018702481855958 0.000381296350000)
(0.640499320123111 -0.018408369889772 0.000422746450000)
(0.636703685693842 -0.017493148105770 0.000422746450000)
(0.624233284314810 -0.017475892725530 0.000422746450000)
(0.612569675044845 -0.016941840573912 0.000224409950000)
(0.587239883494451 -0.016052327987816 0.000147860975000)
(0.510654886095560 -0.013843579421574 0.000147860975000)
(0.262864211097083 -0.007133985012457 0.000147860975000)
(0.084506901254359 -0.002304484431156 0.000147860975000)
(0.074322154381047 -0.002031645943441 0.000174644954781)
(0.252520547532196 -0.006902818551237 0.000593382147923)
(0.500297155902393 -0.013618681614280 0.000653945600000)
(0.583653025195038 -0.015702641412935 0.000919564800000)
(0.609865698812926 -0.016661567460853 0.000919564800000)
(0.621347903943520 -0.017482296527074 0.001453179626614)
(0.631695537490182 -0.017724259188518 0.001869683200000)
(0.641693782733268 -0.018391581404879 0.002007894757927)
(0.653893339385079 -0.018664845783306 0.002096371200000)
(0.660267621688600 -0.018783763217420 0.001861239989921)
(0.659061836161281 -0.018708976163736 0.001686361600000)
(0.651666045223055 -0.018528848487268 0.001782348215437)
(0.641848037087443 -0.018393889989803 0.002010660250285)
(0.631725597818842 -0.017731507480770 0.001869683200000)
(0.621411561348030 -0.017490629073010 0.001469231500821)
(0.610935877701746 -0.016766684930679 0.000972749650781)
(0.587044815896827 -0.016099134799703 0.000656989383368)
(0.510490132095560 -0.013894683671574 0.000653945600000)
(0.262711377517512 -0.007181391724638 0.000617328938174)
(0.084490403311664 -0.002309601848566 0.000198538683232)
(0.074322154381047 -0.002031645943441 0.000174644954781)
(0.252520547532196 -0.006902818551237 0.000593382147923)
(0.500141387502393 -0.013666998664280 0.001132428625000)
(0.583486245599066 -0.015749397449497 0.001399153457382)
(0.608228535382360 -0.016485734047737 0.001621221674647)
(0.620097429843520 -0.017349244352074 0.002179377676614)
(0.626988952015182 -0.017949618563518 0.003237704750000)
(0.644430907558268 -0.018319466404879 0.003541780807927)
(0.655245206031367 -0.018509724153737 0.003441564583876)
(0.660802354413600 -0.018579677767420 0.003095127639921)
(0.659960318430287 -0.018526687100951 0.002969797321482)
(0.654403170048055 -0.018456733487268 0.003316234265437)
(0.644585161912443 -0.018321774989803 0.003544546300285)
(0.627019012343842 -0.017956866855770 0.003237704750000)
(0.620161087248030 -0.017357576898010 0.002195429550821)
(0.608844542701746 -0.016540604405679 0.001645582600781)
(0.584953480896827 -0.015873054274703 0.001329822333368)
(0.510334363695560 -0.013943000721574 0.001132428625000)
(0.262711377517512 -0.007181391724638 0.000617328938174)
(0.084490403311664 -0.002309601848566 0.000198538683232)
(0.075424424781047 -0.001879680314870 -0.000008985273791)
(0.253622817932196 -0.006750852922665 0.000409751919352)
(0.501229727962056 -0.013519353896831 0.000991587819638)
(0.584525173999066 -0.015617079570925 0.001410094603811)
(0.607197757368074 -0.016283086994166 0.002142455624647)
(0.619066651829234 -0.017146597298502 0.002700611626614)
(0.626530766939709 -0.018003538446265 0.004012910938718)
(0.645657759333268 -0.018324862433450 0.004387542529356)
(0.655576472306367 -0.018461455432308 0.004165334305304)
(0.661133620688599 -0.018531409045991 0.003818897361350)
(0.662896569576716 -0.018596268129522 0.003889280100054)
(0.657339421194484 -0.018526314515839 0.004235717044008)
(0.646317302458872 -0.018274844961232 0.004345195136000)
(0.626894010040407 -0.017984154171276 0.003996971793865)
(0.620271701919459 -0.017285867244439 0.002667638386535)
(0.607471835187460 -0.016300128102107 0.002145116050781)
(0.585018884153970 -0.015594433742560 0.001563691011939)
(0.510546275594220 -0.013917528288015 0.001160229963383)
(0.262711377517512 -0.007181391724638 0.000617328938174)
(0.084490403311664 -0.002309601848566 0.000198538683232)
(0.075508739846233 -0.001868056132746 -0.000023031550178)
(0.255480500332196 -0.006494741651237 0.000100275547923)
(0.503087410362056 -0.013263242625403 0.000682111448209)
(0.586382856399066 -0.015360968299497 0.001100618232382)
(0.606317542282360 -0.016032744922737 0.002523222824647)
(0.618186436743520 -0.016896255227074 0.003081378826614)
(0.627574167968281 -0.017973868274836 0.004311054953004)
(0.645849585233268 -0.018383378604879 0.004761716357927)
(0.655768298206367 -0.018519971603737 0.004539508133876)
(0.662976855400288 -0.018651932771857 0.004264291295303)
(0.665969286705287 -0.018762956800951 0.004387697771482)
(0.660412138323055 -0.018693003187268 0.004734134715437)
(0.646773933837813 -0.018305938740939 0.004695726762362)
(0.627937411068978 -0.017954483999848 0.004295115808151)
(0.620750528283122 -0.017191430634909 0.002990032019568)
(0.606591620101746 -0.016049786030679 0.002525883250781)
(0.586562351196827 -0.015279806299703 0.001496727083368)
(0.512403957994220 -0.013661417016587 0.000850753591954)
(0.262711377517512 -0.007181391724638 0.000617328938174)
(0.084490403311664 -0.002309601848566 0.000198538683232)
(0.075508739846233 -0.001868056132746 -0.000023031550178)
(0.256552147717333 -0.006346997895722 -0.000078253109184)
(0.504945092762056 -0.013007131353974 0.000372635076781)
(0.588196017761249 -0.015096565897091 0.000825503343912)
(0.607707134609542 -0.015722198829136 0.002484684447139)
(0.617306221657806 -0.016645913155645 0.003462146026614)
(0.628617568996852 -0.017944198103407 0.004609198967289)
(0.646041411133268 -0.018441894776307 0.005135890186499)
(0.655960124106367 -0.018578487775165 0.004913681962447)
(0.666049572528860 -0.018818621443285 0.004762708966731)
(0.669042003833859 -0.018929645472379 0.004886115442911)
(0.661290920462194 -0.018777313381407 0.005137934821522)
(0.646965759737813 -0.018364454912367 0.005069900590934)
(0.628980812097550 -0.017924813828419 0.004593259822436)
(0.619870313197408 -0.016941088563480 0.003370799219568)
(0.607769762478811 -0.015744848402981 0.002526406400231)
(0.588138599279321 -0.014971283653735 0.001404462640926)
(0.514261640394220 -0.013405305745158 0.000541277220526)
(0.262711377517512 -0.007181391724638 0.000617328938174)
(0.084490403311664 -0.002309601848566 0.000198538683232)
(0.075508739846233 -0.001868056132746 -0.000023031550178)
(0.256552147717333 -0.006346997895722 -0.000078253109184)
(0.506802775162056 -0.012751020082546 0.000063158705352)
(0.589739484804106 -0.014781938454234 0.000758539415340)
(0.609250601652399 -0.015407571386278 0.002417720518568)
(0.616426006572092 -0.016395571084216 0.003842913226614)
(0.629660970025424 -0.017914527931979 0.004907342981575)
(0.646233237033268 -0.018500410947736 0.005510064015070)
(0.657743168498309 -0.018696751458271 0.005356480075859)
(0.669122289657431 -0.018985310114714 0.005261126638160)
(0.672114720962430 -0.019096334143808 0.005384533114339)
(0.661482746362194 -0.018835829552836 0.005512108650094)
(0.647157585637813 -0.018422971083796 0.005444074419505)
(0.630024213126121 -0.017895143656990 0.004891403836722)
(0.618990098111693 -0.016690746492052 0.003751566419568)
(0.609313229521668 -0.015430220960124 0.002459442471660)
(0.589996281679321 -0.014715172382307 0.001094986269498)
(0.516119322794220 -0.013149194473730 0.000231800849097)
(0.264564996328197 -0.006925840684079 0.000308529531159)
(0.084490403311664 -0.002309601848566 0.000198538683232)
(0.075508739846233 -0.001868056132746 -0.000023031550178)
(0.256552147717333 -0.006346997895722 -0.000078253109184)
(0.508112209576115 -0.012570493576703 -0.000154983540646)
(0.591282951846963 -0.014467311011377 0.000691575486769)
(0.610794068695256 -0.015092943943421 0.002350756589996)
(0.617461891585900 -0.016365038696441 0.004141380068869)
(0.630704371053995 -0.017884857760550 0.005205486995861)
(0.646998593816995 -0.018499534131447 0.005833032207035)
(0.660815885626880 -0.018863440129699 0.005854897747288)
(0.672195006786003 -0.019151998786142 0.005759544309588)
(0.673053693421317 -0.019182904380707 0.005790929040966)
(0.661674572262194 -0.018894345724265 0.005886282478665)
(0.647349411537813 -0.018481487255224 0.005818248248077)
(0.631054830147703 -0.017866797355630 0.005190689224968)
(0.618109883025979 -0.016440404420623 0.004132333619568)
(0.610856696564525 -0.015115593517267 0.002392478543088)
(0.591853964079321 -0.014459061110878 0.000785509898069)
(0.517977005194220 -0.012893083202301 -0.000077675522332)
(0.266422678728197 -0.006669729412651 -0.000000946840270)
(0.085356329286055 -0.002190220084350 0.000054281716336)
(0.075508739846233 -0.001868056132746 -0.000023031550178)
(0.256552147717333 -0.006346997895722 -0.000078253109184)
(0.508095019197796 -0.012573853342047 -0.000156191877304)
(0.591998874688392 -0.014669293309948 0.000361917302483)
(0.611509991536685 -0.015294926241993 0.002021098405711)
(0.619904441610186 -0.016646802600727 0.003648717206011)
(0.632810006888281 -0.017956124414836 0.004490467883004)
(0.649104229651281 -0.018570800785733 0.005118013094178)
(0.662931026751166 -0.018926346765414 0.005067786333002)
(0.674310147910288 -0.019214905421857 0.004972432895303)
(0.673621095181317 -0.019333311266422 0.004988472425252)
(0.662241974022194 -0.019044752609979 0.005083825862951)
(0.647916813297813 -0.018631894140939 0.005015791632362)
(0.632309851738779 -0.017987851593656 0.004444213186280)
(0.620052290193122 -0.016664793324909 0.003661152899568)
(0.613429264445954 -0.015323268135839 0.001804887108803)
(0.591852761109321 -0.014487106645164 0.000671010282355)
(0.517975802224220 -0.012921128736587 -0.000192175138046)
(0.266421475758197 -0.006697774946936 -0.000115446455984)
(0.085355126316055 -0.002218265618636 -0.000060217899379)
(0.075508739846233 -0.001868056132746 -0.000023031550178)
(0.256552147717333 -0.006346997895722 -0.000078253109184)
(0.507440691227796 -0.012701738162047 -0.000202185540638)
(0.592424035625058 -0.015052787513281 -0.000060038500850)
(0.611935152473352 -0.015678420445326 0.001599142602377)
(0.622838580920186 -0.017037989124060 0.002878203152678)
(0.635288857008281 -0.018062855354836 0.003419472579670)
(0.650622510760208 -0.018718535842380 0.003968815846860)
(0.664709715494499 -0.018952789115414 0.003829002299668)
(0.676088836653622 -0.019241347771857 0.003733648861969)
(0.674809878943121 -0.019445151887690 0.003762213471704)
(0.662941334115527 -0.019227445209979 0.003867958532951)
(0.648616173391146 -0.018814586740939 0.003799924302362)
(0.634788701858779 -0.018094582533656 0.003373217882946)
(0.622986429503122 -0.017055979848242 0.002890638846235)
(0.616363403755954 -0.015714454659172 0.001034373055469)
(0.591198433139321 -0.014614991465164 0.000625016619022)
(0.517321474254220 -0.013049013556587 -0.000238168801379)
(0.265767147788197 -0.006825659766936 -0.000161440119317)
(0.085228452538779 -0.002243023315003 -0.000069121983160)
(0.075508739846233 -0.001868056132746 -0.000023031550178)
(0.256552147717333 -0.006346997895722 -0.000078253109184)
(0.506786367794463 -0.012829622095380 -0.000248178885082)
(0.592849193613947 -0.015436279057726 -0.000481991378628)
(0.612360310462240 -0.016061911989771 0.001177189724599)
(0.625772699886853 -0.017429172935172 0.002107694441567)
(0.637767689941614 -0.018169585554836 0.002348484701893)
(0.651321866004652 -0.018901227175713 0.002752956946860)
(0.666046015874458 -0.019043272355632 0.002599619546012)
(0.677867513064733 -0.019267789938523 0.002494873417525)
(0.676588555354232 -0.019471594054357 0.002523438027260)
(0.663640689359972 -0.019410136543312 0.002652099632951)
(0.649315528635591 -0.018997278074272 0.002584065402362)
(0.637267534792112 -0.018201312733656 0.002302230005169)
(0.625920548469789 -0.017447163659353 0.002120130135124)
(0.618049033087103 -0.016101810704410 0.000437309985470)
(0.590544109705987 -0.014742875398497 0.000579023274577)
(0.516667150820887 -0.013176897489920 -0.000284162145824)
(0.265112824354863 -0.006953543700270 -0.000207433463762)
(0.085228452538779 -0.002243023315003 -0.000069121983160)
(0.075508739846233 -0.001868056132746 -0.000023031550178)
(0.256362208546591 -0.006384120466932 -0.000091604209356)
(0.506132039824463 -0.012957506915380 -0.000294172548415)
(0.592570391202940 -0.015653083602577 -0.000658772298701)
(0.612785471398907 -0.016445406193104 0.000755233921266)
(0.628706839196853 -0.017820359458505 0.001337180388234)
(0.640246540061614 -0.018276316494836 0.001277489398559)
(0.652021226097986 -0.019083919775713 0.001537089616860)
(0.666745375967792 -0.019225964955632 0.001383752216012)
(0.679646201808066 -0.019294232288523 0.001256089384192)
(0.678367244097565 -0.019498036404357 0.001284653993927)
(0.664340049453305 -0.019592829143312 0.001436232302951)
(0.650014888728924 -0.019179970674272 0.001368198072362)
(0.639746384912112 -0.018308043673656 0.001231234701835)
(0.628854687779789 -0.017838350182687 0.001349616081791)
(0.618474194023769 -0.016485304907743 0.000015354182137)
(0.590645601233002 -0.015049728760323 0.000269794376684)
(0.516012822850887 -0.013304782309920 -0.000330155809157)
(0.265006240857386 -0.006974374861423 -0.000214925372597)
(0.085228452538779 -0.002243023315003 -0.000069121983160)
(0.075508739846233 -0.001868056132746 -0.000023031550178)
(0.255707880576591 -0.006512005286932 -0.000137597872689)
(0.505477711854463 -0.013085391735380 -0.000340166211749)
(0.591916063232940 -0.015780968422577 -0.000704765962034)
(0.614791838285985 -0.016833748242989 0.000113610071040)
(0.631588633695537 -0.018178841990256 0.000532119864919)
(0.642725390181614 -0.018383047434836 0.000206494095226)
(0.652720586191319 -0.019266612375713 0.000321222286860)
(0.667444736061125 -0.019408657555632 0.000167884886012)
(0.681424890551399 -0.019320674638523 0.000017305350858)
(0.680145932840899 -0.019524478754357 0.000045869960593)
(0.665962421276086 -0.019641900891610 0.000200767248034)
(0.650714248822257 -0.019362663274272 0.000152330742362)
(0.642225235032112 -0.018414774613656 0.000160239398502)
(0.631710862405089 -0.018180825929764 0.000527646983117)
(0.618899354960436 -0.016868799111077 -0.000406601621196)
(0.591070762169668 -0.015433222963656 -0.000152161426649)
(0.515358494880887 -0.013432667129920 -0.000376149472490)
(0.265006240857386 -0.006974374861423 -0.000214925372597)
(0.085228452538779 -0.002243023315003 -0.000069121983160)
(0.075298544409692 -0.001909137680226 -0.000037806492693)
(0.255053554421258 -0.006639889752265 -0.000183591408467)
(0.504823385699130 -0.013213276200714 -0.000386159747526)
(0.591261737077607 -0.015908852887910 -0.000750759497812)
(0.617725969458652 -0.017224933681434 -0.000656901845404)
(0.634067476940870 -0.018285572634256 -0.000538872468192)
(0.645204233426947 -0.018489778078836 -0.000864498237885)
(0.653419944345097 -0.019449304469047 -0.000894641671140)
(0.668144094214903 -0.019591349648966 -0.001047979071988)
(0.682327605779715 -0.019473927511712 -0.001202876359430)
(0.681924616651343 -0.019550921031023 -0.001192910637185)
(0.667741105086531 -0.019668343168277 -0.001038013349743)
(0.652592850991329 -0.019495016601102 -0.000967528479522)
(0.644704078277445 -0.018521505257656 -0.000910752934609)
(0.634189705650423 -0.018287556573764 -0.000543345349994)
(0.619324514717992 -0.017252292250855 -0.000828556254308)
(0.591495921927224 -0.015816716103434 -0.000574116059760)
(0.514770377558499 -0.013547611441276 -0.000417489093241)
(0.265006240857386 -0.006974374861423 -0.000214925372597)
(0.085228452538779 -0.002243023315003 -0.000069121983160)
)
;
    }

    bottomInlet
    {
        type            fixedValue;
        value           nonuniform List<vector>
400
(
(0.056631670450000 0.001333192450000 0.000000000000000)
(0.056631670450000 0.001333192450000 0.000000000000000)
(0.056631670450000 0.001333192450000 0.000000000000000)
(0.056631670450000 0.001333192450000 0.000000000000000)
(0.061041592350000 0.001523533600000 0.000000000000000)
(0.061483207950000 0.001582556450000 0.000000000000000)
(0.061483207950000 0.001582556450000 0.000000000000000)
(0.061483207950000 0.001582556450000 0.000000000000000)
(0.063127502100000 0.001722019300000 0.000000000000000)
(0.063127502100000 0.001722019300000 0.000000000000000)
(0.063852367050000 0.001719103350000 0.000000000000000)
(0.063852367050000 0.001719103350000 0.000000000000000)
(0.061483207950000 0.001582556450000 0.000000000000000)
(0.061483207950000 0.001582556450000 0.000000000000000)
(0.061483207950000 0.001582556450000 0.000000000000000)
(0.061041592350000 0.001523533600000 0.000000000000000)
(0.056631670450000 0.001333192450000 0.000000000000000)
(0.000000000000000 0.000000000000000 0.000000000000000)
(0.000000000000000 0.000000000000000 0.000000000000000)
(0.000000000000000 0.000000000000000 0.000000000000000)
(0.084265831673736 0.001983741070813 0.000000000000000)
(0.184595027250000 0.004345637250000 0.000000000000000)
(0.184595027250000 0.004345637250000 0.000000000000000)
(0.184595027250000 0.004345637250000 0.000000000000000)
(0.198969486750000 0.004966068000000 0.000000000000000)
(0.200145783528205 0.005123282528417 0.000000000000000)
(0.200408964750000 0.005158457250000 0.000000000000000)
(0.202721636237647 0.005354609353795 0.000000000000000)
(0.205768660500000 0.005613046500000 0.000000000000000)
(0.206645073260439 0.005609520911145 0.000000000000000)
(0.208131410250000 0.005603541750000 0.000000000000000)
(0.208131410250000 0.005603541750000 0.000000000000000)
(0.202623322984322 0.005346270793142 0.000000000000000)
(0.200408964750000 0.005158457250000 0.000000000000000)
(0.200106176881285 0.005117989017091 0.000000000000000)
(0.198969486750000 0.004966068000000 0.000000000000000)
(0.184595027250000 0.004345637250000 0.000000000000000)
(0.120174168843433 0.002829075909540 0.000000000000000)
(0.000000000000000 0.000000000000000 0.000000000000000)
(0.000000000000000 0.000000000000000 0.000000000000000)
(0.084265831673736 0.001983741070813 0.000000000000000)
(0.262013102659788 0.006168172110966 0.000000000000000)
(0.345816465999999 0.008141026000000 0.000000000000000)
(0.350912674826324 0.008252397748046 0.000000000000000)
(0.371807682841727 0.009044865456370 0.000000000000000)
(0.373921574778204 0.009460542528417 0.000000000000000)
(0.375441965999999 0.009663746000000 0.000000000000000)
(0.382435683737647 0.010256926853795 0.000000000000000)
(0.385482707999999 0.010515364000000 0.000000000000000)
(0.388422697010438 0.010503537161145 0.000000000000000)
(0.389909033999999 0.010497558000000 0.000000000000000)
(0.388174686074628 0.010504534846974 0.000000000000000)
(0.382337370484321 0.010248588293142 0.000000000000000)
(0.375441965999999 0.009663746000000 0.000000000000000)
(0.373881968131284 0.009455249017091 0.000000000000000)
(0.371741495753712 0.009026619966328 0.000000000000000)
(0.350189674463448 0.008236597411562 0.000000000000000)
(0.281395607593433 0.006624464659540 0.000000000000000)
(0.034446825435713 0.000810928712370 0.000000000000000)
(0.000000000000000 0.000000000000000 0.000000000000000)
(0.084265831673736 0.001983741070813 0.000000000000000)
(0.262013102659788 0.006168172110966 0.000000000000000)
(0.508956254558688 0.011981575513599 0.000000000000000)
(0.568527081576325 0.013350906798046 0.000000000000000)
(0.589422089591728 0.014143374506370 0.000000000000000)
(0.592863894828205 0.014925111328417 0.000000000000000)
(0.596480348224757 0.015383449676533 0.000000000000000)
(0.608859688037648 0.016433418753795 0.000000000000000)
(0.614444867630429 0.016681645537317 0.000000000000000)
(0.617446627160439 0.016669570211145 0.000000000000000)
(0.617600449904639 0.016668951420803 0.000000000000000)
(0.614598690374629 0.016681026746974 0.000000000000000)
(0.608761374784322 0.016425080193142 0.000000000000000)
(0.596382307428070 0.015375134224627 0.000000000000000)
(0.592824288181285 0.014919817817091 0.000000000000000)
(0.589355902503713 0.014125129016328 0.000000000000000)
(0.567804081213449 0.013335106461562 0.000000000000000)
(0.484520539943434 0.011406323009540 0.000000000000000)
(0.237571757785714 0.005592787062370 0.000000000000000)
(0.059847007834947 0.001408886200365 0.000000000000000)
(0.084283930318093 0.001990460558978 0.000000000000000)
(0.262771579554405 0.006449772015148 0.000000000000000)
(0.510743334242548 0.012645065029644 0.000000000000000)
(0.583611003887858 0.014172054711183 0.000000000000000)
(0.605586346733309 0.014577057436940 0.000000000000000)
(0.612800334905033 0.015267474077691 0.000000000000000)
(0.617044113553135 0.016655181197510 0.000000000000000)
(0.622982835551064 0.017431113644658 0.000000000000000)
(0.629088378651020 0.018052031566246 0.000000000000000)
(0.632879614678311 0.018469671295557 0.000000000000000)
(0.632843081758377 0.018465646856381 0.000000000000000)
(0.629051845731086 0.018048007127071 0.000000000000000)
(0.622935671882481 0.017424951406251 0.000000000000000)
(0.616997080589764 0.016649036036585 0.000000000000000)
(0.612753540986347 0.015251097558837 0.000000000000000)
(0.605391182905338 0.014568608786378 0.000000000000000)
(0.583581791520207 0.014244996558923 0.000000000000000)
(0.500811244193433 0.012489843759540 0.000000000000000)
(0.252898398259397 0.006318379615792 0.000000000000000)
(0.074433363866194 0.001859633165824 0.000000000000000)
(0.084555036854359 0.002289553481156 0.000000000000000)
(0.262912346697083 0.007119054062457 0.000000000000000)
(0.510869091492548 0.013356978079644 0.000000000000000)
(0.583842234244450 0.014899934137816 0.000000000000000)
(0.609510312094845 0.015845493498912 0.000000000000000)
(0.621216119889810 0.016159130200530 0.000000000000000)
(0.627976776518842 0.017116462280770 0.000000000000000)
(0.632656027901064 0.017974253644658 0.000000000000000)