/*--------------------------------*- C++ -*----------------------------------*\
| =========                 |                                                 |
| \\      /  F ield         | OpenFOAM: The Open Source CFD Toolbox           |
|  \\    /   O peration     | Version:  4.x                                   |
|   \\  /    A nd           | Web:      www.OpenFOAM.org                      |
|    \\/     M anipulation  |                                                 |
\*---------------------------------------------------------------------------*/
FoamFile
{
    version     2.0;
    format      ascii;
    class       volVectorField;
    object      U;
}
// * * * * * * * * * * * * * * * * * * * * * * * * * * * * * * * * * * * * * //

dimensions      [0 1 -1 0 0 0 0];

internalField   uniform (0 0 0);

boundaryField
{
    topInlet
    {
        type            fixedValue;
        value           nonuniform List<vector>
400
(
(0.096648380400000 -0.002275244400000 0.000000000000000)
(0.103542582000000 -0.002425909200000 0.000000000000000)
(0.103542582000000 -0.002425909200000 0.000000000000000)
(0.104174413200000 -0.002600083200000 0.000000000000000)
(0.104179281637975 -0.002600733876933 0.000000000000000)
(0.107734255200000 -0.002938821600000 0.000000000000000)
(0.107734255200000 -0.002938821600000 0.000000000000000)
(0.107734255200000 -0.002938821600000 0.000000000000000)
(0.107734255200000 -0.002938821600000 0.000000000000000)
(0.107956350459641 -0.002937928166441 0.000000000000000)
(0.108971319600000 -0.002933845200000 0.000000000000000)
(0.108971319600000 -0.002933845200000 0.000000000000000)
(0.108971319600000 -0.002933845200000 0.000000000000000)
(0.107953692405420 -0.002937938859126 0.000000000000000)
(0.104928080400000 -0.002700812400000 0.000000000000000)
(0.104928080400000 -0.002700812400000 0.000000000000000)
(0.104928080400000 -0.002700812400000 0.000000000000000)
(0.104174413200000 -0.002600083200000 0.000000000000000)
(0.096648380400000 -0.002275244400000 0.000000000000000)
(0.096648380400000 -0.002275244400000 0.000000000000000)
(0.242199095816135 -0.005701721375568 0.000000000000000)
(0.321683968123756 -0.007550144754756 0.000000000000000)
(0.330177744000000 -0.007735766400000 0.000000000000000)
(0.332192534400000 -0.008291174400000 0.000000000000000)
(0.333847038037975 -0.008512302276933 0.000000000000000)
(0.340073904458816 -0.009077009910425 0.000000000000000)
(0.343544198400000 -0.009371347200000 0.000000000000000)
(0.343544198400000 -0.009371347200000 0.000000000000000)
(0.344472821039634 -0.009367611583888 0.000000000000000)
(0.346473994059641 -0.009359561366441 0.000000000000000)
(0.347488963200000 -0.009355478400000 0.000000000000000)
(0.347488963200000 -0.009355478400000 0.000000000000000)
(0.345764808625427 -0.009362414241679 0.000000000000000)
(0.343763635605421 -0.009370464459126 0.000000000000000)
(0.337482168979415 -0.008857188647664 0.000000000000000)
(0.334595836800000 -0.008612380800000 0.000000000000000)
(0.334595836800000 -0.008612380800000 0.000000000000000)
(0.332192534400000 -0.008291174400000 0.000000000000000)
(0.308193436800000 -0.007255324800000 0.000000000000000)
(0.250527374664489 -0.005897781255030 0.000000000000000)
(0.242199095816135 -0.005701721375568 0.000000000000000)
(0.573273895423756 -0.013472940054756 0.000000000000000)
(0.600928331132715 -0.014385433295710 0.000000000000000)
(0.604313180489503 -0.015185118920501 0.000000000000000)
(0.606990240337975 -0.015542913576933 0.000000000000000)
(0.613217106758816 -0.016107621210425 0.000000000000000)
(0.621317569560229 -0.016794672021014 0.000000000000000)
(0.625761412731528 -0.017014414645802 0.000000000000000)
(0.628141168739634 -0.017004841483888 0.000000000000000)
(0.630142341759641 -0.016996791266441 0.000000000000000)
(0.630215081920353 -0.016996498651007 0.000000000000000)
(0.628214069045434 -0.017004548224231 0.000000000000000)
(0.626212896025427 -0.017012598441679 0.000000000000000)
(0.624211723005420 -0.017020648659126 0.000000000000000)
(0.617930256379415 -0.016507372847664 0.000000000000000)
(0.611121020077721 -0.015929839015924 0.000000000000000)
(0.605920400274499 -0.015399927211437 0.000000000000000)
(0.602022777757358 -0.014687134361439 0.000000000000000)
(0.576025807329728 -0.013533079905747 0.000000000000000)
(0.250527374664489 -0.005897781255030 0.000000000000000)
(0.243207937987270 -0.006076274457861 0.000000000000000)
(0.577588190327077 -0.014267901121624 0.000000000000000)
(0.605273204023082 -0.014673637079787 0.000000000000000)
(0.613913156095021 -0.015337940826625 0.000000000000000)
(0.617076012095413 -0.016444848997123 0.000000000000000)
(0.620517619627096 -0.017102443257524 0.000000000000000)
(0.624403642416621 -0.017610177274001 0.000000000000000)
(0.628284350312895 -0.018024567933128 0.000000000000000)
(0.631289993044731 -0.018355667291726 0.000000000000000)
(0.633817483729592 -0.018634093777933 0.000000000000000)
(0.633853814385547 -0.018638095935860 0.000000000000000)
(0.631326525964666 -0.018359691730902 0.000000000000000)
(0.628799035279805 -0.018081265244695 0.000000000000000)
(0.626271544594944 -0.017802838758488 0.000000000000000)
(0.622897564378604 -0.017399495834935 0.000000000000000)
(0.619630979728277 -0.016972695418545 0.000000000000000)
(0.615780379211492 -0.015991414941004 0.000000000000000)
(0.608382481577875 -0.014804952021553 0.000000000000000)
(0.580261501995175 -0.014291995763162 0.000000000000000)
(0.251560540668909 -0.006314656051683 0.000000000000000)
(0.243172057992394 -0.006178180593429 0.000000000000000)
(0.577327277577077 -0.015008943871624 0.000000000000000)
(0.610279960012661 -0.016183649672453 0.000000000000000)
(0.621812907653938 -0.016551040271661 0.000000000000000)
(0.629980137595413 -0.016834006997123 0.000000000000000)
(0.632544450659243 -0.017548620749606 0.000000000000000)
(0.635519283666621 -0.018115577274001 0.000000000000000)
(0.641743060190357 -0.018423783839372 0.000000000000000)
(0.648165001289221 -0.018600062062195 0.000000000000000)
(0.651471105729592 -0.018843203027933 0.000000000000000)
(0.651507436385547 -0.018847205185860 0.000000000000000)
(0.648243058557140 -0.018602204684847 0.000000000000000)
(0.642842750618284 -0.018453969646328 0.000000000000000)
(0.637442442679429 -0.018305734607809 0.000000000000000)
(0.634991594436797 -0.017841305746378 0.000000000000000)
(0.632535105228277 -0.017361853418545 0.000000000000000)
(0.627802127455546 -0.016525851291481 0.000000000000000)
(0.613333861786931 -0.016309044948663 0.000000000000000)
(0.580493132627298 -0.015107599066093 0.000000000000000)
(0.251387199022734 -0.006806979903893 0.000000000000000)
(0.242958333442394 -0.006603029993429 0.000221177725000)
(0.578678808584411 -0.015679340077061 0.000311015550000)
(0.611685440962661 -0.016862212747453 0.000311015550000)
(0.622715697528938 -0.017513773446661 0.000632364950000)
(0.632860730342683 -0.017471106281499 0.000632364950000)
(0.637378023784243 -0.017864173024606 0.000632364950000)
(0.639861709987771 -0.018463051488919 0.000632364950000)
(0.649046014365357 -0.018664968839372 0.000709035450000)
(0.655467955464221 -0.018841247062195 0.000709035450000)
(0.660710169710638 -0.018980008903034 0.000687500749262)
(0.659927837608068 -0.018930609810767 0.000570361850000)
(0.654527961832140 -0.018782386634847 0.000570361850000)
(0.649127653893284 -0.018634151596328 0.000570361850000)
(0.644559473362861 -0.018535778809198 0.000683709918732)
(0.638853709911797 -0.018219997621378 0.000632364950000)
(0.636765927192009 -0.017716581325362 0.000632364950000)
(0.628704917330546 -0.017488584466481 0.000632364950000)
(0.615834231536931 -0.017106103173663 0.000335683450000)
(0.582793324977298 -0.015913001816093 0.000221177725000)
(0.251315195422734 -0.006829314353893 0.000221177725000)
(0.242844565594001 -0.006638319094551 0.000570645166708)
(0.577627025273331 -0.015595312288885 0.000844488559924)
(0.609752155962661 -0.016653217972453 0.000933000000000)
(0.621048821509222 -0.017443759254076 0.001398560034908)
(0.628509839117683 -0.017679434406499 0.001897000000000)
(0.633027132559243 -0.018072501149606 0.001897000000000)
(0.642330333030548 -0.018398850100699 0.002048955849795)
(0.651576284440357 -0.018598303839372 0.002127000000000)
(0.657499725097483 -0.018744711210578 0.002059096861898)
(0.661204490685638 -0.018791346953034 0.001828138899262)
(0.660422158583068 -0.018741947860767 0.001711000000000)
(0.655022282807140 -0.018593724684847 0.001711000000000)
(0.650794509026016 -0.018515749551654 0.001870716506096)
(0.647089743437861 -0.018469113809198 0.002101674468732)
(0.637172122829244 -0.018321651849966 0.001956478778605)
(0.632415035967009 -0.017924909450362 0.001897000000000)
(0.624354026105546 -0.017696912591481 0.001897000000000)
(0.614678260436931 -0.016983106248663 0.001007000000000)
(0.582649328577298 -0.015957667366093 0.000663500000000)
(0.251195039621409 -0.006866584903378 0.000590267420275)
(0.242844565594001 -0.006638319094551 0.000570645166708)
(0.577483028873331 -0.015639977838885 0.001286810834924)
(0.608213324444924 -0.016487863419762 0.001580018375976)
(0.619892850409222 -0.017320762329076 0.002069876584908)
(0.624195529250380 -0.017883968909219 0.003154841641893)
(0.632150906135043 -0.018141970600867 0.003239059280206)
(0.644860603105548 -0.018332185100699 0.003466920399795)
(0.653588410938042 -0.018500590943286 0.003474385726109)
(0.657994046072483 -0.018556049260578 0.003199735011898)
(0.661698811660638 -0.018602685003034 0.002968777049262)
(0.660916479558068 -0.018553285910767 0.002851638150000)
(0.657029544689171 -0.018495720294109 0.003057723093459)
(0.653324779101016 -0.018449084551654 0.003288681056096)
(0.649620013512861 -0.018402448809198 0.003519639018732)
(0.639702392904244 -0.018254986849966 0.003374443328605)
(0.629018641603023 -0.018095092840313 0.003182903629542)
(0.622432979139068 -0.017653256867449 0.002710396366623)
(0.613041059164296 -0.016806868592728 0.001647775355510)
(0.581197111718926 -0.015816871707297 0.001237180476763)
(0.251195039621409 -0.006866584903378 0.000590267420275)
(0.243703275194001 -0.006519932223122 0.000427590395279)
(0.578269734873331 -0.015543925417456 0.001364933788495)
(0.607228418059209 -0.016310640273334 0.002091710625976)
(0.618907944023508 -0.017143539182647 0.002581568834908)
(0.623210622864665 -0.017706745762790 0.003666533891893)
(0.633504807160043 -0.018135684572296 0.004121055758777)
(0.646214504130548 -0.018325899072127 0.004348916878367)
(0.653924261063042 -0.018433301864714 0.004217708604680)
(0.658329896197483 -0.018488760182007 0.003943057890470)
(0.662034661785638 -0.018535395924462 0.003712099927833)
(0.663419600454778 -0.018586068775939 0.003766211534803)
(0.659715131342743 -0.018539436765538 0.003997151014888)
(0.656010365754588 -0.018492801023082 0.004228108977524)
(0.651399517396259 -0.018412143434372 0.004419990419605)
(0.641449932657815 -0.018207936878538 0.004221295192891)
(0.630766181356595 -0.018048042868885 0.004029755493828)
(0.622337260067639 -0.017578038821021 0.003183896230909)
(0.611667466678582 -0.016586643296300 0.002134799705510)
(0.580943860961783 -0.015566930639439 0.001517242098191)
(0.251195039621409 -0.006866584903378 0.000590267420275)
(0.245420565594001 -0.006283176237408 0.000141502309565)
(0.579987025273331 -0.015307169431742 0.001078845702781)
(0.606414724116352 -0.016079217487619 0.002443701825976)
(0.618094250080651 -0.016912116396933 0.002933560034908)
(0.623472648649370 -0.017598726557648 0.003972320763407)
(0.633682136060044 -0.018189778458010 0.004466951873063)
(0.646391833030548 -0.018379992957842 0.004694812992653)
(0.654101589963042 -0.018487395750429 0.004563604718966)
(0.658507225097483 -0.018542854067721 0.004288954004755)
(0.664238294836332 -0.018665574038407 0.004145384212829)
(0.666260100869064 -0.018740160161654 0.004226961920517)
(0.662555631757028 -0.018693528151252 0.004457901400602)
(0.658850866168873 -0.018646892408797 0.004688859363239)
(0.651576846296259 -0.018466237320086 0.004765886533890)
(0.642414479972101 -0.018180508992823 0.004496907350034)
(0.631730728670880 -0.018020614983171 0.004305367650971)
(0.623301807381925 -0.017550610935306 0.003459508388051)
(0.610853772735724 -0.016355220510585 0.002486790905510)
(0.582370682433211 -0.015276080768011 0.001455338883906)
(0.251195039621409 -0.006866584903378 0.000590267420275)
(0.246721684526207 -0.006103796153919 -0.000075254637659)
(0.581704315673331 -0.015070413446028 0.000792757617067)
(0.607252115035030 -0.015804001581375 0.002490685170487)
(0.617280556137794 -0.016680693611219 0.003285551234908)
(0.624437195963656 -0.017571298671934 0.004247932920550)
(0.634443032865142 -0.018183439954810 0.004760746231486)
(0.646569161930548 -0.018434086843556 0.005040709106938)
(0.654278918863042 -0.018541489636143 0.004909500833252)
(0.659492714477870 -0.018627292986492 0.004669703557009)
(0.667078795250618 -0.018819665424121 0.004606134598543)
(0.669100601283350 -0.018894251547368 0.004687712306232)
(0.665396132171314 -0.018847619536966 0.004918651786317)
(0.659340255969007 -0.018712703643429 0.005048213689710)
(0.651754175196259 -0.018520331205800 0.005111782648176)
(0.642943047833645 -0.018198229717265 0.004811444360325)
(0.632695275985166 -0.017993187097456 0.004580979808114)
(0.624266354696211 -0.017523183049592 0.003735120545194)
(0.610040078792867 -0.016123797724871 0.002838782105510)
(0.583897854204615 -0.015003919083594 0.001315984979082)
(0.251195039621409 -0.006866584903378 0.000590267420275)
(0.246721684526207 -0.006103796153919 -0.000075254637659)
(0.583417987560930 -0.014832941843025 0.000509540262207)
(0.608679043520744 -0.015513129895660 0.002428777313344)
(0.616466801166365 -0.016449253468362 0.003637568834908)
(0.625401815620799 -0.017543868729076 0.004523565749121)
(0.635407652522285 -0.018156010011953 0.005036379060057)
(0.646746504130548 -0.018488184786413 0.005386631164081)
(0.654456261063042 -0.018595587579000 0.005255422890395)
(0.662333427935013 -0.018781395929350 0.005130488499867)
(0.669919508707761 -0.018973768366978 0.005066919541401)
(0.671941314740492 -0.019048354490225 0.005148497249089)
(0.667103678941756 -0.018959174023915 0.005330566788387)
(0.659517598169007 -0.018766801586286 0.005394135746853)
(0.651931517396259 -0.018574429148657 0.005457704705319)
(0.643120390033645 -0.018252327660122 0.005157366417468)
(0.633659895642309 -0.017965757154599 0.004856612636685)
(0.624420130552386 -0.017402735357074 0.004045580747822)
(0.609693383744388 -0.015879969356565 0.003104518891724)
(0.585615273404615 -0.014767145340737 0.001029875436224)
(0.252200187097218 -0.006728009225424 0.000422817164212)
(0.246721684526207 -0.006103796153919 -0.000075254637659)
(0.584844809032359 -0.014542091971597 0.000447637047921)
(0.610105864992173 -0.015222280024232 0.002366874099058)
(0.616373103323132 -0.016300426636235 0.003958634752566)
(0.626366362935085 -0.017516440843362 0.004799177906264)
(0.636372199836570 -0.018128582126239 0.005311991217200)
(0.647034614182588 -0.018530806537341 0.005722636582721)
(0.656152708736379 -0.018706721756232 0.005666833853795)
(0.665173928349298 -0.018935487315064 0.005591238885581)
(0.672760009122047 -0.019127859752692 0.005527669927115)
(0.674781815154778 -0.019202445875939 0.005609247634803)
(0.667281007841756 -0.019013267909629 0.005676462902673)
(0.659694927069007 -0.018820895472000 0.005740031861139)
(0.652108846296259 -0.018628523034372 0.005803600819605)
(0.643297718933646 -0.018306421545836 0.005503262531753)
(0.634334910189442 -0.017968312337925 0.005158074682790)
(0.623606436609529 -0.017171312571359 0.004397571947822)
(0.611120205215816 -0.015589119485136 0.003042615677438)
(0.587332563804615 -0.014530389355023 0.000743787350510)
(0.253917477497218 -0.006491253239710 0.000136729078498)
(0.246721684526207 -0.006103796153919 -0.000075254637659)
(0.586013210166169 -0.014412577857787 0.000303690933159)
(0.611274266125982 -0.015092765910422 0.002222927984296)
(0.617774636224560 -0.016370261710997 0.003987276744947)
(0.627767895836513 -0.017586275918124 0.004827819898645)
(0.637668511567999 -0.018132677117668 0.005271189459581)
(0.648330925914016 -0.018534901528769 0.005681834825102)
(0.658694207271141 -0.018828404234804 0.005726111849033)
(0.667715426884060 -0.019057169793635 0.005650516880819)
(0.675301507656809 -0.019249542231264 0.005586947922353)
(0.675161109547110 -0.019288418181108 0.005591330412780)
(0.667575635855089 -0.019096061138200 0.005654894284101)
(0.659989555082341 -0.018903688700572 0.005718463242567)
(0.652403474309592 -0.018711316262943 0.005782032201033)
(0.643592346946979 -0.018389214774407 0.005481693913182)
(0.634629538202775 -0.018051105566496 0.005136506064218)
(0.623674255225243 -0.017088147646121 0.004483499654489)
(0.612868452402959 -0.015461383131327 0.002818114812676)
(0.588469343094615 -0.014382373186451 0.000518586398605)
(0.255054256787218 -0.006343237071139 -0.000088471873407)
(0.246721684526207 -0.006103796153919 -0.000075254637659)
(0.586406249168391 -0.014767098148898 -0.000086385091285)
(0.611667305128204 -0.015447286201533 0.001832851959852)
(0.620487094231227 -0.016731893148775 0.003274976887169)
(0.630438608092167 -0.017921825445290 0.004087968726841)
(0.639960078581332 -0.018231344277668 0.004281110435137)
(0.650450110439920 -0.018640927235153 0.004677721779707)
(0.660338511788919 -0.018852848801470 0.004580920937922)
(0.669359731401838 -0.019081614360302 0.004505325969708)
(0.676945812174586 -0.019273986797931 0.004441757011242)
(0.676133496168941 -0.019410133712666 0.004460405909853)
(0.668222157606200 -0.019264950871534 0.004530888664101)
(0.660636076833452 -0.019072578433905 0.004594457622567)
(0.653049996060703 -0.018880205996276 0.004658026581033)
(0.644238868698090 -0.018558104507741 0.004357688293182)
(0.635276059953886 -0.018219995299829 0.004012500444218)
(0.626386713231910 -0.017449779083899 0.003771199796711)
(0.615580910409626 -0.015823014569104 0.002105814954899)
(0.587864451181282 -0.014500595999785 0.000476067667494)
(0.254449364873884 -0.006461459884472 -0.000130990604518)
(0.246721684526207 -0.006103796153919 -0.000075254637659)
(0.586799285222835 -0.015121615781120 -0.000476458190174)
(0.612060341182649 -0.015801803833756 0.001442778860963)
(0.623199531894560 -0.017093521874330 0.002562682371613)
(0.632730157918834 -0.018020491865290 0.003097897127952)
(0.642251628407999 -0.018330010697668 0.003291038836248)
(0.651096627342142 -0.018809815701820 0.003553724589707)
(0.661431692285660 -0.018957075500556 0.003447440022010)
(0.671004023587394 -0.019106058743635 0.003360143647486)
(0.678590104360142 -0.019298431181264 0.003296574689020)
(0.677777788354497 -0.019434578096000 0.003315223587631)
(0.668868674508422 -0.019433839338200 0.003406891474101)
(0.661282593735674 -0.019241466900572 0.003470460432567)
(0.653696512962926 -0.019049094462943 0.003534029391033)
(0.644885385600312 -0.018726992974407 0.003233691103182)
(0.637259745973713 -0.018331803600633 0.002997365005147)
(0.629099150895243 -0.017811407809455 0.003058905281155)
(0.618293348072959 -0.016184643294660 0.001393520439343)
(0.587259563804615 -0.014618817926451 0.000433549255272)
(0.253844477497218 -0.006579681811139 -0.000173509016741)
(0.246721684526207 -0.006103796153919 -0.000075254637659)
(0.586210917833146 -0.015243749432732 -0.000524730148930)
(0.612453377237093 -0.016156321465978 0.001052705762074)
(0.625911969557894 -0.017455150599886 0.001850387856058)
(0.635021707745500 -0.018119158285290 0.002107825529063)
(0.644543178234666 -0.018428677117668 0.002300967237359)
(0.651743144244364 -0.018978704168486 0.002429727399707)
(0.662078209187882 -0.019125963967223 0.002323442832010)
(0.672648315772949 -0.019130503126969 0.002214961325263)
(0.680234396545698 -0.019322875564597 0.002151392366797)
(0.679422080540052 -0.019459022479333 0.002170041265408)
(0.669967162859604 -0.019537297639650 0.002273297859869)
(0.661929110637896 -0.019410355367238 0.002346463242567)
(0.654343029865148 -0.019217982929610 0.002410032201033)
(0.645531902502534 -0.018895881441074 0.002109693913182)
(0.639551295800380 -0.018430470020633 0.002007293406258)
(0.631637431756165 -0.018064226846774 0.002231670954082)
(0.621005785736292 -0.016546272020215 0.000681225923788)
(0.586654676427948 -0.014737039853118 0.000391030843050)
(0.253389304266636 -0.006668642927476 -0.000205503804195)
(0.246478107032991 -0.006151402041646 -0.000092376053421)
(0.585606025919813 -0.015361972246065 -0.000567248880041)
(0.612846416239315 -0.016510841757089 0.000662629737630)
(0.628624427564560 -0.017816782037664 0.001138087998280)
(0.637313274758834 -0.018217825445290 0.001117746504618)
(0.646834745247999 -0.018527344277668 0.001310888212914)
(0.652389665995475 -0.019147593901820 0.001305721779707)
(0.662724730938993 -0.019294853700556 0.001199437212010)
(0.673969234879087 -0.019201762953672 0.001076636652291)
(0.681878701063475 -0.019347320131264 0.001006201455686)
(0.681066385057830 -0.019483467046000 0.001024850354297)
(0.671611467377381 -0.019561742206317 0.001128106948758)
(0.662575632389007 -0.019579245100572 0.001222457622567)
(0.654989551616259 -0.019386872662943 0.001286026581033)
(0.646182069778793 -0.019064615556709 0.000985985083053)
(0.641842862813713 -0.018529137180633 0.001017214381814)
(0.633928998769498 -0.018162894006774 0.001241591929638)
(0.623676529548564 -0.016907775565726 -0.000025278815645)
(0.586319306955792 -0.014919082187484 0.000254643399498)
(0.253389304266636 -0.006668642927476 -0.000205503804195)
(0.245873219656324 -0.006269623968312 -0.000134894465643)
(0.585001138543146 -0.015480194172732 -0.000609767292263)
(0.615017988395302 -0.016870812233772 0.000025474624123)
(0.631336865227894 -0.018178410763219 0.000425793482724)
(0.639604824585500 -0.018316491865290 0.000127674905730)
(0.647874137838471 -0.018679461934155 0.000218875859206)
(0.653036182897697 -0.019316482368486 0.000181724589707)
(0.663371247841216 -0.019463742167223 0.000075440022010)
(0.674615751781309 -0.019370651420339 -0.000047360537709)
(0.683522993249031 -0.019371764514597 -0.000138980866536)
(0.682710677243386 -0.019507911429333 -0.000120331967925)
(0.673255759562937 -0.019586186589650 -0.000017075373464)
(0.663800085186395 -0.019664468014486 0.000086189484830)
(0.655636068518481 -0.019555761129610 0.000162029391033)
(0.648473619605460 -0.019163281976709 -0.000004086515835)
(0.644134412640380 -0.018627803600633 0.000027142782925)
(0.636220548596165 -0.018261560426774 0.000251520330749)
(0.624069565603008 -0.017262293197949 -0.000415351914534)
(0.586712343010236 -0.015273599819706 -0.000135429699391)
(0.253389304266636 -0.006668642927476 -0.000205503804195)
(0.245268330918658 -0.006387846160979 -0.000177412973532)
(0.584396249805480 -0.015598416365399 -0.000652285800152)
(0.617730432161635 -0.017232441772994 -0.000686821494099)
(0.633634797330875 -0.018281061702494 -0.000560071579104)
(0.641896379568167 -0.018415158507290 -0.000862398920826)
(0.648520656195360 -0.018848350780822 -0.000905123859794)
(0.653682701254586 -0.019485371215153 -0.000942275129293)
(0.664017766198104 -0.019632631013889 -0.001048559696990)
(0.675262270138198 -0.019539540267006 -0.001171360256709)
(0.684717944514739 -0.019461258842170 -0.001274625115003)
(0.684354973128608 -0.019532355867666 -0.001265516866814)
(0.674900055448159 -0.019610631027983 -0.001162260272353)
(0.665444381071618 -0.019688912452819 -0.001058995414059)
(0.656282586875370 -0.019724649976276 -0.000961970327967)
(0.650765174588126 -0.019261948618709 -0.000994160342391)
(0.646425967623046 -0.018726470242633 -0.000962931043631)
(0.638512103578831 -0.018360227068774 -0.000738553495807)
(0.624462602541786 -0.017616811627837 -0.000805425891090)
(0.587105379949014 -0.015628118249595 -0.000525503675946)
(0.253389304266636 -0.006668642927476 -0.000205503804195)
)
;
    }

    bottomInlet
    {
        type            fixedValue;
        value           nonuniform List<vector>
400
(
(0.096648380400000 0.002275244400000 0.000000000000000)
(0.096648380400000 0.002275244400000 0.000000000000000)
(0.104174413200000 0.002600083200000 0.000000000000000)
(0.104928080400000 0.002700812400000 0.000000000000000)
(0.104928080400000 0.002700812400000 0.000000000000000)
(0.104928080400000 0.002700812400000 0.000000000000000)
(0.107734255200000 0.002938821600000 0.000000000000000)
(0.107734255200000 0.002938821600000 0.000000000000000)
(0.107734255200000 0.002938821600000 0.000000000000000)
(0.107985115720352 0.002937812451007 0.000000000000000)
(0.108971319600000 0.002933845200000 0.000000000000000)
(0.108971319600000 0.002933845200000 0.000000000000000)
(0.108971319600000 0.002933845200000 0.000000000000000)
(0.104959785660229 0.002703501521014 0.000000000000000)
(0.104928080400000 0.002700812400000 0.000000000000000)
(0.104928080400000 0.002700812400000 0.000000000000000)
(0.104928080400000 0.002700812400000 0.000000000000000)
(0.104174413200000 0.002600083200000 0.000000000000000)
(0.096648380400000 0.002275244400000 0.000000000000000)
(0.000000000000000 0.000000000000000 0.000000000000000)
(0.250527374664489 0.005897781255030 0.000000000000000)
(0.308193436800000 0.007255324800000 0.000000000000000)
(0.332192534400000 0.008291174400000 0.000000000000000)
(0.334595836800000 0.008612380800000 0.000000000000000)
(0.334595836800000 0.008612380800000 0.000000000000000)
(0.337482168979415 0.008857188647664 0.000000000000000)
(0.343544198400000 0.009371347200000 0.000000000000000)
(0.343544198400000 0.009371347200000 0.000000000000000)
(0.344501746445434 0.009367495224231 0.000000000000000)
(0.346502759320353 0.009359445651007 0.000000000000000)
(0.347488963200000 0.009355478400000 0.000000000000000)
(0.347488963200000 0.009355478400000 0.000000000000000)
(0.345357300231528 0.009364053545802 0.000000000000000)
(0.340769728860229 0.009136027121014 0.000000000000000)
(0.334595836800000 0.008612380800000 0.000000000000000)
(0.334595836800000 0.008612380800000 0.000000000000000)
(0.333158675789503 0.008420301220501 0.000000000000000)
(0.331414244832715 0.008076626895710 0.000000000000000)
(0.308193436800000 0.007255324800000 0.000000000000000)
(0.000000000000000 0.000000000000000 0.000000000000000)
(0.250527374664489 0.005897781255030 0.000000000000000)
(0.576025807329728 0.013533079905747 0.000000000000000)
(0.602022777757358 0.014687134361439 0.000000000000000)
(0.605920400274499 0.015399927211437 0.000000000000000)
(0.611121020077721 0.015929839015924 0.000000000000000)
(0.617930256379415 0.016507372847664 0.000000000000000)
(0.624167748105420 0.017020825559126 0.000000000000000)
(0.626168921125427 0.017012775341679 0.000000000000000)
(0.628170094145434 0.017004725124231 0.000000000000000)
(0.630171107020353 0.016996675551007 0.000000000000000)
(0.630186316659641 0.016996614366441 0.000000000000000)
(0.628185143639634 0.017004664583888 0.000000000000000)
(0.625805387631528 0.017014237745802 0.000000000000000)
(0.621217816260229 0.016786211321014 0.000000000000000)
(0.613117353458816 0.016099160510425 0.000000000000000)
(0.607017031537975 0.015546494276933 0.000000000000000)
(0.604339971689503 0.015188699620501 0.000000000000000)
(0.600950791332715 0.014391624795710 0.000000000000000)
(0.573028821823756 0.013467584254756 0.000000000000000)
(0.238763459916135 0.005620841475568 0.000000000000000)
(0.251560540668909 0.006314656051683 0.000000000000000)
(0.580261501995175 0.014291995763162 0.000000000000000)
(0.608434137377875 0.014810474021553 0.000000000000000)
(0.615780379211492 0.015991414941004 0.000000000000000)
(0.619559921628277 0.016977313818545 0.000000000000000)
(0.622826506278604 0.017404114234935 0.000000000000000)
(0.626011784694944 0.017814610658488 0.000000000000000)
(0.628539275379805 0.018093037144695 0.000000000000000)
(0.631066766064666 0.018371463630902 0.000000000000000)
(0.633594054485547 0.018649867835860 0.000000000000000)
(0.633557723829592 0.018645865677933 0.000000000000000)
(0.631030233144731 0.018367439191726 0.000000000000000)
(0.628024590412895 0.018036339833128 0.000000000000000)
(0.624403642416621 0.017610177274001 0.000000000000000)
(0.620517619627096 0.017102443257524 0.000000000000000)
(0.617076012095413 0.016444848997123 0.000000000000000)
(0.613913156095021 0.015337940826625 0.000000000000000)
(0.605221548223082 0.014668115079787 0.000000000000000)
(0.577588190327077 0.014267901121624 0.000000000000000)
(0.243197571687270 0.006105716757861 0.000000000000000)
(0.251387199022734 0.006806979903893 0.000000000000000)
(0.580493132627298 0.015107599066093 0.000000000000000)
(0.614040064486931 0.016384537948663 0.000000000000000)
(0.627802127455546 0.016525851291481 0.000000000000000)
(0.631932354067009 0.017401029050362 0.000000000000000)
(0.634020136786797 0.017904445346378 0.000000000000000)
(0.637127425944944 0.018320010658488 0.000000000000000)
(0.639654916629805 0.018598437144695 0.000000000000000)
(0.644691799207140 0.018763142034847 0.000000000000000)
(0.650091674983068 0.018911365210767 0.000000000000000)
(0.650014049878076 0.018909234450714 0.000000000000000)
(0.644613741939221 0.018760999412195 0.000000000000000)
(0.639140231662895 0.018541739833128 0.000000000000000)
(0.635519283666621 0.018115577274001 0.000000000000000)
(0.632544450659243 0.017548620749606 0.000000000000000)
(0.629980137595413 0.016834006997123 0.000000000000000)
(0.621812907653938 0.016551040271661 0.000000000000000)
(0.609588835973082 0.016109768579787 0.000000000000000)
(0.577327277577077 0.015008943871624 0.000000000000000)
(0.243030337042394 0.006580695543429 0.000000000000000)
(0.251387199022734 0.006806979903893 0.000000000000000)
(0.581898613577298 0.015786162141093 0.000311015550000)
(0.615834231536931 0.017106103173663 0.000335683450000)
(0.630302497205546 0.017322909516481 0.000335683450000)
(0.636765927192009 0.017716581325362 0.000632364950000)
(0.638853709911797 0.018219997621378 0.000632364950000)
(0.644559473362861 0.018535778809198 0.000683709918732)
(0.649127653893284 0.018634151596328 0.000570361850000)