/*--------------------------------*- C++ -*----------------------------------*\
| =========                 |                                                 |
| \\      /  F ield         | OpenFOAM: The Open Source CFD Toolbox           |
|  \\    /   O peration     | Version:  4.x                                   |
|   \\  /    A nd           | Web:      www.OpenFOAM.org                      |
|    \\/     M anipulation  |                                                 |
\*---------------------------------------------------------------------------*/
FoamFile
{
    version     2.0;
    format      ascii;
    class       volVectorField;
    object      U;
}
// * * * * * * * * * * * * * * * * * * * * * * * * * * * * * * * * * * * * * //

dimensions      [0 1 -1 0 0 0 0];

internalField   uniform (0 0 0);

boundaryField
{
    topInlet
    {
        type            fixedValue;
        value           nonuniform List<vector>
900
(
(0.060658686300000 -0.001427994300000 0.000000000000000)
(0.060658686300000 -0.001427994300000 0.000000000000000)
(0.064985641500000 -0.001522554900000 0.000000000000000)
(0.064985641500000 -0.001522554900000 0.000000000000000)
(0.065030556971487 -0.001534936541380 0.000000000000000)
(0.065382192900000 -0.001631870400000 0.000000000000000)
(0.065382192900000 -0.001631870400000 0.000000000000000)
(0.067616429400000 -0.001844470200000 0.000000000000000)
(0.067616429400000 -0.001844470200000 0.000000000000000)
(0.067616429400000 -0.001844470200000 0.000000000000000)
(0.067616429400000 -0.001844470200000 0.000000000000000)
(0.067616429400000 -0.001844470200000 0.000000000000000)
(0.067616429400000 -0.001844470200000 0.000000000000000)
(0.067616429400000 -0.001844470200000 0.000000000000000)
(0.067711291632916 -0.001844088593015 0.000000000000000)
(0.068392838700000 -0.001841346900000 0.000000000000000)
(0.068392838700000 -0.001841346900000 0.000000000000000)
(0.068392838700000 -0.001841346900000 0.000000000000000)
(0.068392838700000 -0.001841346900000 0.000000000000000)
(0.068392838700000 -0.001841346900000 0.000000000000000)
(0.067228581926401 -0.001811574434949 0.000000000000000)
(0.065855211300000 -0.001695090300000 0.000000000000000)
(0.065855211300000 -0.001695090300000 0.000000000000000)
(0.065855211300000 -0.001695090300000 0.000000000000000)
(0.065855211300000 -0.001695090300000 0.000000000000000)
(0.065855211300000 -0.001695090300000 0.000000000000000)
(0.065382192900000 -0.001631870400000 0.000000000000000)
(0.060658686300000 -0.001427994300000 0.000000000000000)
(0.060658686300000 -0.001427994300000 0.000000000000000)
(0.060658686300000 -0.001427994300000 0.000000000000000)
(0.161714545966733 -0.003806997215955 0.000000000000000)
(0.188284111700000 -0.004432483700000 0.000000000000000)
(0.201714948500000 -0.004725999100000 0.000000000000000)
(0.201714948500000 -0.004725999100000 0.000000000000000)
(0.202594205171488 -0.004968379741380 0.000000000000000)
(0.202945841100000 -0.005065313600000 0.000000000000000)
(0.203277387787727 -0.005109625509311 0.000000000000000)
(0.206316978352461 -0.005422943818263 0.000000000000000)
(0.209880894600000 -0.005725221800000 0.000000000000000)
(0.209880894600000 -0.005725221800000 0.000000000000000)
(0.209880894600000 -0.005725221800000 0.000000000000000)
(0.209880894600000 -0.005725221800000 0.000000000000000)
(0.209880894600000 -0.005725221800000 0.000000000000000)
(0.210275307649638 -0.005723635175164 0.000000000000000)
(0.211609316232917 -0.005718268793015 0.000000000000000)
(0.212290863300000 -0.005715527100000 0.000000000000000)
(0.212290863300000 -0.005715527100000 0.000000000000000)
(0.212290863300000 -0.005715527100000 0.000000000000000)
(0.212290863300000 -0.005715527100000 0.000000000000000)
(0.211100918315424 -0.005720313950403 0.000000000000000)
(0.209493047126401 -0.005692326034949 0.000000000000000)
(0.204953374620847 -0.005307288074623 0.000000000000000)
(0.204414086700000 -0.005261547700000 0.000000000000000)
(0.204414086700000 -0.005261547700000 0.000000000000000)
(0.204414086700000 -0.005261547700000 0.000000000000000)
(0.203759044019399 -0.005173999873608 0.000000000000000)
(0.202945841100000 -0.005065313600000 0.000000000000000)
(0.188284111700000 -0.004432483700000 0.000000000000000)
(0.188284111700000 -0.004432483700000 0.000000000000000)
(0.171197027873439 -0.004030228725547 0.000000000000000)
(0.161714545966733 -0.003806997215955 0.000000000000000)
(0.329173344550000 -0.007749222550000 0.000000000000000)
(0.349801908008734 -0.008200035939008 0.000000000000000)
(0.352654207750000 -0.008262369650000 0.000000000000000)
(0.354454516721488 -0.008758652541380 0.000000000000000)
(0.354806152650000 -0.008855586400000 0.000000000000000)
(0.356236358137727 -0.009046736359311 0.000000000000000)
(0.359275948702461 -0.009360054668263 0.000000000000000)
(0.364307732387918 -0.009786831649351 0.000000000000000)
(0.366930567900000 -0.010009290700000 0.000000000000000)
(0.366930567900000 -0.010009290700000 0.000000000000000)
(0.366930567900000 -0.010009290700000 0.000000000000000)
(0.367794143571270 -0.010005816751537 0.000000000000000)
(0.369128312299638 -0.010000449725164 0.000000000000000)
(0.370462320882917 -0.009995083343015 0.000000000000000)
(0.371143867950000 -0.009992341650000 0.000000000000000)
(0.371143867950000 -0.009992341650000 0.000000000000000)
(0.370818768927070 -0.009993649441880 0.000000000000000)
(0.369484760343791 -0.009999015824030 0.000000000000000)
(0.368150591615424 -0.010004382850403 0.000000000000000)
(0.366542720426401 -0.009976394934949 0.000000000000000)
(0.362003047920846 -0.009591356974623 0.000000000000000)
(0.357463920328568 -0.009206365231794 0.000000000000000)
(0.357373057050000 -0.009198658550000 0.000000000000000)
(0.357373057050000 -0.009198658550000 0.000000000000000)
(0.355619355569399 -0.008964272673608 0.000000000000000)
(0.354265930700751 -0.008706665900682 0.000000000000000)
(0.337624700151107 -0.007933917149208 0.000000000000000)
(0.329173344550000 -0.007749222550000 0.000000000000000)
(0.171197027873439 -0.004030228725547 0.000000000000000)
(0.161714545966733 -0.003806997215955 0.000000000000000)
(0.484762593300000 -0.011412021300000 0.000000000000000)
(0.505391156758733 -0.011862834689008 0.000000000000000)
(0.519517980444162 -0.012216206530995 0.000000000000000)
(0.522159537971487 -0.012944392541380 0.000000000000000)
(0.523367584637796 -0.013155787489045 0.000000000000000)
(0.525154669387727 -0.013394635109311 0.000000000000000)
(0.528194259952460 -0.013707953418263 0.000000000000000)
(0.533226043637917 -0.014134730399351 0.000000000000000)
(0.538585047745843 -0.014589260986870 0.000000000000000)
(0.540366395400000 -0.014740348200000 0.000000000000000)
(0.541633138338201 -0.014735252410680 0.000000000000000)
(0.543221457321270 -0.014728863001537 0.000000000000000)
(0.544555626049637 -0.014723495975164 0.000000000000000)
(0.545889634632916 -0.014718129593015 0.000000000000000)
(0.546571181700000 -0.014715387900000 0.000000000000000)
(0.545588765155437 -0.014719339915507 0.000000000000000)
(0.544254596427070 -0.014724706941880 0.000000000000000)
(0.542920587843791 -0.014730073324030 0.000000000000000)
(0.541586419115423 -0.014735440350403 0.000000000000000)
(0.539978547926401 -0.014707452434949 0.000000000000000)
(0.535438875420846 -0.014322414474623 0.000000000000000)
(0.530899747828568 -0.013937422731794 0.000000000000000)
(0.526360075323013 -0.013552384771468 0.000000000000000)
(0.525676584012331 -0.013464390092154 0.000000000000000)
(0.523324376819398 -0.013150012673608 0.000000000000000)
(0.520953799450751 -0.012612012150682 0.000000000000000)
(0.504312568901106 -0.011839263399208 0.000000000000000)
(0.484762593300000 -0.011412021300000 0.000000000000000)
(0.171197027873439 -0.004030228725547 0.000000000000000)
(0.161714545966733 -0.003806997215955 0.000000000000000)
(0.496683714657694 -0.011865835462305 0.000000000000000)
(0.583187282558734 -0.013814504189008 0.000000000000000)
(0.603423525644162 -0.014431570930995 0.000000000000000)
(0.607756938567447 -0.015031246670885 0.000000000000000)
(0.610262012937796 -0.015272362489045 0.000000000000000)
(0.612106871239211 -0.015600298810408 0.000000000000000)
(0.615352734352460 -0.016231696118263 0.000000000000000)
(0.620384518037917 -0.016658473099351 0.000000000000000)
(0.625036770579376 -0.017082932686980 0.000000000000000)
(0.627595954429752 -0.017404766167286 0.000000000000000)
(0.629852370929605 -0.017653331323723 0.000000000000000)
(0.631471562721270 -0.017663746101537 0.000000000000000)
(0.632805731449637 -0.017658379075164 0.000000000000000)
(0.634139740032917 -0.017653012693015 0.000000000000000)
(0.633997022954350 -0.017559470677311 0.000000000000000)
(0.632312164007096 -0.017373867874005 0.000000000000000)
(0.630872343327070 -0.017321728141880 0.000000000000000)
(0.629538334743791 -0.017327094524030 0.000000000000000)
(0.628204166015424 -0.017332461550403 0.000000000000000)
(0.626596294826401 -0.017304473634949 0.000000000000000)
(0.622056622320846 -0.016919435674623 0.000000000000000)
(0.617517494728568 -0.016534443931794 0.000000000000000)
(0.614575611916415 -0.016217389030825 0.000000000000000)
(0.612000668080894 -0.015563130775044 0.000000000000000)
(0.609606999519399 -0.015184818573608 0.000000000000000)
(0.606723519550751 -0.014505428550682 0.000000000000000)
(0.587705211501107 -0.013913238299208 0.000000000000000)
(0.518270713147211 -0.012405162133257 0.000000000000000)
(0.171197027873439 -0.004030228725547 0.000000000000000)
(0.162388142427147 -0.004057083540346 0.000000000000000)
(0.498252484857694 -0.012448273162305 0.000000000000000)
(0.583964691512829 -0.014298661127847 0.000000000000000)
(0.603454593042576 -0.014546929589722 0.000000000000000)
(0.611243672367447 -0.014884119170885 0.000000000000000)
(0.614042670527692 -0.015531555100692 0.000000000000000)
(0.616154050939211 -0.016270477210408 0.000000000000000)
(0.618403099339421 -0.016860192545941 0.000000000000000)
(0.620816989329784 -0.017175582888850 0.000000000000000)
(0.623387856279376 -0.017511483286980 0.000000000000000)
(0.625971877729752 -0.017832191167286 0.000000000000000)
(0.628228294229605 -0.018080756323723 0.000000000000000)
(0.630234348375928 -0.018301741750275 0.000000000000000)
(0.631919409587162 -0.018487366834830 0.000000000000000)
(0.633604268534416 -0.018672969638135 0.000000000000000)
(0.633640801454350 -0.018676994077311 0.000000000000000)
(0.631955942507096 -0.018491391274005 0.000000000000000)
(0.630270881295863 -0.018305766189451 0.000000000000000)
(0.628586022348608 -0.018120163386145 0.000000000000000)
(0.626900961137375 -0.017934538301591 0.000000000000000)
(0.625155960917068 -0.017741168263607 0.000000000000000)
(0.622978150680043 -0.017456623267692 0.000000000000000)
(0.620800601853441 -0.017172112426740 0.000000000000000)
(0.618622791616415 -0.016887567430825 0.000000000000000)
(0.616047847780894 -0.016233309175044 0.000000000000000)
(0.613268794246257 -0.015260720772866 0.000000000000000)
(0.606171029026263 -0.014664210039232 0.000000000000000)
(0.587994685029054 -0.014334983585244 0.000000000000000)
(0.519838492147211 -0.012990415033257 0.000000000000000)
(0.171909130918113 -0.004297794602065 0.000000000000000)
(0.162388142427147 -0.004057083540346 0.000000000000000)
(0.498147115414698 -0.012747542790960 0.000000000000000)
(0.583811158762830 -0.014734723877847 0.000000000000000)
(0.606404559927146 -0.015435891374273 0.000000000000000)
(0.614578641617447 -0.015814237670885 0.000000000000000)
(0.621179477957441 -0.015835722766383 0.000000000000000)
(0.623747416439211 -0.016499475210408 0.000000000000000)
(0.625673834285705 -0.017110159822481 0.000000000000000)
(0.627357930579784 -0.017472982888850 0.000000000000000)
(0.629928797529376 -0.017808883286980 0.000000000000000)
(0.633183384315590 -0.018099202227050 0.000000000000000)
(0.638004507499351 -0.018231539010237 0.000000000000000)
(0.640622530375928 -0.018424791000275 0.000000000000000)
(0.642307591587162 -0.018610416084830 0.000000000000000)
(0.643992450534416 -0.018796018888135 0.000000000000000)
(0.644028983454350 -0.018800043327311 0.000000000000000)
(0.642344124507096 -0.018614440524005 0.000000000000000)
(0.640659063295863 -0.018428815439451 0.000000000000000)
(0.638768839495736 -0.018252519440281 0.000000000000000)
(0.635168490148856 -0.018153692127068 0.000000000000000)
(0.631757251177926 -0.018034645897659 0.000000000000000)
(0.630365340339373 -0.017699021604917 0.000000000000000)
(0.628393967353441 -0.017401110426740 0.000000000000000)
(0.626216157116415 -0.017116565430825 0.000000000000000)
(0.623641213280894 -0.016462307175044 0.000000000000000)
(0.618697227653295 -0.015846162415583 0.000000000000000)
(0.608740936776264 -0.015512543539232 0.000000000000000)
(0.587841579483377 -0.014771111004858 0.000000000000000)
(0.519684959397211 -0.013426477783257 0.000000000000000)
(0.171784585919030 -0.004651526524402 0.000000000000000)
(0.162358519789061 -0.004141217570553 0.000000000000000)
(0.497977599564698 -0.013229000640960 0.000000000000000)
(0.585825193000152 -0.015546724595283 0.000000000000000)
(0.609242000777146 -0.016372538274273 0.000000000000000)
(0.618260788567447 -0.016841183570885 0.000000000000000)
(0.624861624907441 -0.016862668666383 0.000000000000000)
(0.631633992525348 -0.016834185985942 0.000000000000000)
(0.634057685985705 -0.017362997022481 0.000000000000000)
(0.635600483233848 -0.017735003778166 0.000000000000000)
(0.637243609669190 -0.018131202394107 0.000000000000000)
(0.640405252065590 -0.018427562227050 0.000000000000000)
(0.645226375249351 -0.018559899010237 0.000000000000000)
(0.649512567161769 -0.018677552268242 0.000000000000000)
(0.653112916508648 -0.018776379581455 0.000000000000000)
(0.655462065334416 -0.018931877838135 0.000000000000000)
(0.655498598254350 -0.018935902277311 0.000000000000000)
(0.653190973776568 -0.018778522204106 0.000000000000000)
(0.649590624429688 -0.018679694890894 0.000000000000000)
(0.645990707245736 -0.018580879440281 0.000000000000000)
(0.642390357898856 -0.018482052127068 0.000000000000000)
(0.638979118927926 -0.018363005897659 0.000000000000000)
(0.637587208089373 -0.018027381604917 0.000000000000000)
(0.636195464326903 -0.017691797598370 0.000000000000000)
(0.634600008816415 -0.017369402630825 0.000000000000000)
(0.631293340113125 -0.016835618674530 0.000000000000000)
(0.622379374603295 -0.016873108315583 0.000000000000000)
(0.612035933375923 -0.016498103104405 0.000000000000000)
(0.590679020333377 -0.015707757904858 0.000000000000000)
(0.519515443547211 -0.013907935633257 0.000000000000000)
(0.171784585919030 -0.004651526524402 0.000000000000000)
(0.162220473589061 -0.004409107520553 0.000150780375000)
(0.497839553364698 -0.013496890590960 0.000150780375000)
(0.586655228200152 -0.015967024520283 0.000212024250000)
(0.610072035977146 -0.016792838199273 0.000212024250000)
(0.619379839591247 -0.017292537106062 0.000214706551896)
(0.625310831182440 -0.017472615091383 0.000431093250000)
(0.632083198800348 -0.017444132410942 0.000431093250000)
(0.636974299260705 -0.017566699047481 0.000431093250000)
(0.638517096508848 -0.017938705803166 0.000431093250000)
(0.640160222944190 -0.018334904419107 0.000431093250000)
(0.645057742440590 -0.018577157227050 0.000483360750000)
(0.649878865624351 -0.018709494010237 0.000483360750000)
(0.654165057536769 -0.018827147268242 0.000483360750000)
(0.657765406883648 -0.018925974581455 0.000483360750000)
(0.661248759841251 -0.019017805338740 0.000467482977190)
(0.660749359835520 -0.018985345904720 0.000388824750000)
(0.657149442651567 -0.018886530454106 0.000388824750000)
(0.653549093304688 -0.018787703140894 0.000388824750000)
(0.649949176120736 -0.018688887690281 0.000388824750000)
(0.646348826773856 -0.018590060377068 0.000388824750000)
(0.643141991297363 -0.018532167592805 0.000472450835131)
(0.639894023964373 -0.018270717229917 0.000431093250000)
(0.638502280201903 -0.017935133223370 0.000431093250000)
(0.637110369363350 -0.017599508930627 0.000431093250000)
(0.631742546388125 -0.017445565099530 0.000431093250000)
(0.622828580878295 -0.017483054740583 0.000431093250000)
(0.613574235275923 -0.016995106279405 0.000228840750000)
(0.592118994533377 -0.016214526454858 0.000150780375000)
(0.519410788095185 -0.014080989391071 0.000150780375000)
(0.171735499919030 -0.004666752274402 0.000150780375000)
(0.162145521366171 -0.004432356589690 0.000381015559663)
(0.497741370564698 -0.013527345440960 0.000452374300000)
(0.585337033200152 -0.015824523095283 0.000636119400000)
(0.608753840977146 -0.016650336774273 0.000636119400000)
(0.618591649891247 -0.017208672631062 0.000672438401896)
(0.622407535468603 -0.017608094943744 0.001281614740546)
(0.629116578225348 -0.017586179285942 0.001293374600000)
(0.634007678685705 -0.017708745922481 0.001293374600000)
(0.635550475933848 -0.018080752678166 0.001293374600000)
(0.639106662453504 -0.018400499319220 0.001336002367816)
(0.646782986965590 -0.018531702227050 0.001450188600000)
(0.651604110149351 -0.018664039010237 0.001450188600000)
(0.655890302061769 -0.018781692268242 0.001450188600000)
(0.659116162591561 -0.018858079681806 0.001399177680580)
(0.661585808666251 -0.018889167688740 0.001245218027190)
(0.661086408660520 -0.018856708254720 0.001166559800000)
(0.657486491476567 -0.018757892804106 0.001166559800000)
(0.653886142129688 -0.018659065490894 0.001166559800000)
(0.650286224945736 -0.018560250040281 0.001166559800000)
(0.647734398131939 -0.018524251680426 0.001309384087414)
(0.644867235822363 -0.018486712592805 0.001439278685131)
(0.637744449963650 -0.018380112321165 0.001311580443062)
(0.635535659626903 -0.018077180098370 0.001293374600000)
(0.634143748788350 -0.017741555805627 0.001293374600000)
(0.628775925813125 -0.017587611974530 0.001293374600000)
(0.621354771415673 -0.017470291574300 0.001016149375166)
(0.612786045575923 -0.016911241804405 0.000686572600000)
(0.592020811733377 -0.016244981304858 0.000452374300000)
(0.519312605295185 -0.014111444241071 0.000452374300000)
(0.171653274446865 -0.004692257397713 0.000403357230470)
(0.162145521366171 -0.004432356589690 0.000381015559663)
(0.497643187764698 -0.013557800290960 0.000753968225000)
(0.584312575777610 -0.015723663677818 0.001030720408001)
(0.607435645977146 -0.016507835349273 0.001060214550000)
(0.617803460191247 -0.017124808156062 0.001130170251896)
(0.621619345768603 -0.017524230468744 0.001739346590546)
(0.626149957650348 -0.017728226160942 0.002155655950000)
(0.631041058110705 -0.017850792797481 0.002155655950000)
(0.632583855358848 -0.018222799553166 0.002155655950000)
(0.640831906978504 -0.018355044319220 0.002302830217816)
(0.648508231490590 -0.018486247227050 0.002417016450000)
(0.653329354674351 -0.018618584010237 0.002417016450000)
(0.656983268865751 -0.018698350292818 0.002330890866521)
(0.659453211416561 -0.018729442031806 0.002176912730580)
(0.661922857491251 -0.018760530038740 0.002022953077190)
(0.661423457485520 -0.018728070604720 0.001944294850000)
(0.657823540301568 -0.018629255154106 0.001944294850000)
(0.654399231282439 -0.018540976426349 0.001968274148083)
(0.651929585207748 -0.018509888419414 0.002122233801473)
(0.649459642656939 -0.018478796680426 0.002276211937414)
(0.646592480347363 -0.018441257592805 0.002406106535131)
(0.639469694488650 -0.018334657321165 0.002278408293062)
(0.632569039051903 -0.018219226973370 0.002155655950000)
(0.631177128213350 -0.017883602680627 0.002155655950000)
(0.625809305238125 -0.017729658849530 0.002155655950000)
(0.620566581715673 -0.017386427099300 0.001473881225166)
(0.611693658826751 -0.016793722595834 0.001124998633843)
(0.590880789706786 -0.016127738753324 0.000858579130949)
(0.519214422495185 -0.014141899091071 0.000753968225000)
(0.171653274446865 -0.004692257397713 0.000403357230470)
(0.162145521366171 -0.004432356589690 0.000381015559663)
(0.497545004964698 -0.013588255140960 0.001055562150000)
(0.584214392977610 -0.015754118527818 0.001332314333001)
(0.606117450977146 -0.016365333924273 0.001484309700000)
(0.617015270491247 -0.017040943681062 0.001587902101896)
(0.620831156068603 -0.017440365993744 0.002197078440546)
(0.623703430943321 -0.017816337375560 0.002921352314607)
(0.628074437535705 -0.017992839672481 0.003017937300000)
(0.634148827195966 -0.018183749560311 0.003118912523289)
(0.642557151503504 -0.018309589319220 0.003269658067816)
(0.650233476015590 -0.018440792227050 0.003383844300000)
(0.654379867538436 -0.018532698134681 0.003291935861578)
(0.657320317690751 -0.018569712642818 0.003108625916521)
(0.659790260241561 -0.018600804381806 0.002954647780580)
(0.662259906316251 -0.018631892388740 0.002800688127190)
(0.661760506310520 -0.018599432954720 0.002722029900000)
(0.658594418358249 -0.018526613165337 0.002781123862141)
(0.656124475807439 -0.018495521426349 0.002935101998083)
(0.653654829732748 -0.018464433419414 0.003089061651473)
(0.651184887181939 -0.018433341680426 0.003243039787414)
(0.648317724872363 -0.018395802592805 0.003372934385131)
(0.641194939013650 -0.018289202321165 0.003245236143062)
(0.634073008128633 -0.018182614845140 0.003117553229074)
(0.628210507638350 -0.018025649555627 0.003017937300000)
(0.623558954532729 -0.017797425886201 0.002884921090517)
(0.619778392015673 -0.017302562624300 0.001931613075166)
(0.610375463826751 -0.016651221170834 0.001549093783843)
(0.589562594706786 -0.015985237328324 0.001282674280949)
(0.519116239695185 -0.014172353941071 0.001055562150000)
(0.171653274446865 -0.004692257397713 0.000403357230470)
(0.162262600566171 -0.004416215346833 0.000361511016806)
(0.497625134417060 -0.013583575162416 0.001149558336575)
(0.584243106577609 -0.015765386984961 0.001584247640144)
(0.605311842621954 -0.016269568528752 0.001917684555061)
(0.616250416119818 -0.016949687088205 0.002023863401896)
(0.620066301697174 -0.017349109400887 0.002633039740546)
(0.622938576571892 -0.017725080782703 0.003357313614607)
(0.627818743342685 -0.018028371511288 0.003871109248492)
(0.635713655945966 -0.018146527503168 0.004012650280432)
(0.644121980253504 -0.018272367262077 0.004163395824958)
(0.651387876595516 -0.018378976733390 0.004221675665934)
(0.654695304888437 -0.018420610777538 0.004015488018721)
(0.657635755040751 -0.018457625285675 0.003832178073664)
(0.660105697591561 -0.018488717024663 0.003678199937723)
(0.662575343666251 -0.018519805031598 0.003524240284333)
(0.662810459440082 -0.018527296615129 0.003528732351608)
(0.660340813365392 -0.018496208608194 0.003682692004998)
(0.657870870814582 -0.018465116869206 0.003836670140940)
(0.655401224739891 -0.018434028862271 0.003990629794330)
(0.652931282189082 -0.018402937123283 0.004144607930271)
(0.649936223579506 -0.018353022649948 0.004261880413702)
(0.642813437720793 -0.018246422378307 0.004134182171633)
(0.635691506835776 -0.018139834902283 0.004006499257645)
(0.628568720977064 -0.018033234630642 0.003878801015576)
(0.622915334789872 -0.017720076993344 0.003315675119088)
(0.619134772272816 -0.017225213731443 0.002362367103738)
(0.609133598855323 -0.016507190677977 0.001954781683843)
(0.588473480692500 -0.015837155292610 0.001660144223806)
(0.519062800979263 -0.014188929839065 0.001219713020434)
(0.171653274446865 -0.004692257397713 0.000403357230470)
(0.163433521366171 -0.004254785161118 0.000166444131092)
(0.498796055217061 -0.013422144976702 0.000954491450861)
(0.585414027377610 -0.015603956799246 0.001389180754430)
(0.604757031879097 -0.016111774743038 0.002157686955061)
(0.615695605376961 -0.016791893302491 0.002263865801896)
(0.619511490954317 -0.017191315615173 0.002873042140546)
(0.622383765829035 -0.017567286996989 0.003597316014607)
(0.628049152036188 -0.018053915700506 0.004097179593602)
(0.635834566245966 -0.018183410988882 0.004248496794717)
(0.644242890553504 -0.018309250747791 0.004399242339244)
(0.651508786895516 -0.018415860219104 0.004457522180220)
(0.654816215188437 -0.018457494263253 0.004251334533007)
(0.657756665340751 -0.018494508771389 0.004068024587950)
(0.660226607891561 -0.018525600510377 0.003914046452009)
(0.663371808339877 -0.018582054419626 0.003789221349276)
(0.664747232054368 -0.018632362600843 0.003842891337323)
(0.662277585979677 -0.018601274593908 0.003996850990713)
(0.659807643428867 -0.018570182854920 0.004150829126654)
(0.657337997354177 -0.018539094847986 0.004304788780044)
(0.654868054803367 -0.018508003108997 0.004458766915985)
(0.650101487135741 -0.018385313057107 0.004493767007458)
(0.643471106635079 -0.018227720892593 0.004322106128776)
(0.636349175750062 -0.018121133416568 0.004194423214788)
(0.629226389891350 -0.018014533144928 0.004066724972719)
(0.623573003704158 -0.017701375507629 0.003503599076231)
(0.619792441187101 -0.017206512245728 0.002550291060880)
(0.608578788112466 -0.016349396892263 0.002194784083843)
(0.589446347563929 -0.015638841621181 0.001617936009520)
(0.519621863972657 -0.014111854051489 0.001126577193451)
(0.171653274446865 -0.004692257397713 0.000403357230470)
(0.164604442166171 -0.004093354975404 -0.000028622754623)
(0.499966976017061 -0.013260714790987 0.000759424565147)
(0.586584948177610 -0.015442526613532 0.001194113868716)
(0.605209775616638 -0.015927256737492 0.002211562016295)
(0.615140794634104 -0.016634099516776 0.002503868201896)
(0.618956680211460 -0.017033521829458 0.003113044540546)
(0.621958887406771 -0.017424398686355 0.003831737559791)
(0.628706820950474 -0.018035214214791 0.004285103550745)
(0.635955476545966 -0.018220294474596 0.004484343309003)
(0.644363800853504 -0.018346134233506 0.004635088853530)
(0.651629697195516 -0.018452743704818 0.004693368694506)
(0.654937125488437 -0.018494377748967 0.004487181047292)
(0.657877575640751 -0.018531392257103 0.004303871102236)
(0.660347518191561 -0.018562483996092 0.004149892966294)
(0.665308580954163 -0.018687120405340 0.004103380334991)
(0.666684004668653 -0.018737428586557 0.004157050323037)
(0.664214358593963 -0.018706340579623 0.004311009976427)
(0.661744416043153 -0.018675248840634 0.004464988112368)
(0.659274769968463 -0.018644160833700 0.004618947765758)
(0.655357796982633 -0.018558735596043 0.004710519997515)
(0.650222397435742 -0.018422196542821 0.004729613521744)
(0.644128775549365 -0.018209019406879 0.004510030085919)
(0.637006844664348 -0.018102431930854 0.004382347171931)
(0.629884058805635 -0.017995831659214 0.004254648929862)
(0.624230672618444 -0.017682674021915 0.003691523033374)
(0.619632527828727 -0.017094019991589 0.002773331823008)
(0.608023977369608 -0.016191603106549 0.002434786483843)
(0.590419214435357 -0.015440527949753 0.001575727795234)
(0.520792784772657 -0.013950423865775 0.000931510307737)
(0.171653274446865 -0.004692257397713 0.000403357230470)
(0.164734245017959 -0.004075459573366 -0.000050246965291)
(0.501137896817061 -0.013099284605273 0.000564357679432)
(0.587755868977610 -0.015281096427818 0.000999046983001)
(0.606182642488066 -0.015728943066063 0.002169353802010)
(0.614585983891247 -0.016476305731062 0.002743870601896)
(0.618401869468603 -0.016875728043744 0.003353046940546)
(0.622616556321057 -0.017405697200641 0.004019661516934)
(0.629364489864759 -0.018016512729077 0.004473027507888)
(0.636076386845966 -0.018257177960311 0.004720189823289)
(0.644484711153504 -0.018383017719220 0.004870935367816)
(0.651750607495516 -0.018489627190532 0.004929215208791)
(0.655058035788437 -0.018531261234681 0.004723027561578)
(0.657998485940751 -0.018568275742818 0.004539717616521)
(0.662188371107101 -0.018663948362450 0.004459915234919)
(0.667245353568448 -0.018792186391054 0.004417539320705)
(0.668620777282939 -0.018842494572271 0.004471209308751)
(0.666151131208249 -0.018811406565337 0.004625168962141)
(0.663681188657439 -0.018780314826349 0.004779147098083)
(0.660536296824708 -0.018723872505084 0.004903985510441)
(0.655478707282633 -0.018595619081757 0.004946366511800)
(0.650343307735741 -0.018459080028535 0.004965460036029)
(0.644367862821532 -0.018233664870796 0.004735325595431)
(0.637664513578633 -0.018083730445140 0.004570271129074)
(0.630541727719921 -0.017977130173499 0.004442572887005)
(0.624888341532729 -0.017663972536201 0.003879446990517)
(0.619077717085870 -0.016936226205874 0.003013334223008)
(0.607469166626751 -0.016033809320834 0.002674788883843)
(0.591392081306786 -0.015242214278324 0.001533519580949)
(0.521963705572657 -0.013788993680060 0.000736443422023)
(0.171653274446865 -0.004692257397713 0.000403357230470)
(0.164734245017959 -0.004075459573366 -0.000050246965291)
(0.502308817617060 -0.012937854419559 0.000369290793718)
(0.588856752149452 -0.015106623169057 0.000858035368330)
(0.607155509359495 -0.015530629394634 0.002127145587724)
(0.614031173148390 -0.016318511945348 0.002983873001896)
(0.617847058725746 -0.016717934258030 0.003593049340546)
(0.623274225235343 -0.017386995714927 0.004207585474077)
(0.630022158779045 -0.017997811243363 0.004660951465031)
(0.636645355980137 -0.018247661934526 0.004916033020418)
(0.644605621453504 -0.018419901204934 0.005106781882101)
(0.651871517795516 -0.018526510676247 0.005165061723077)
(0.655178946088437 -0.018568144720396 0.004958874075864)
(0.659067554179312 -0.018640760924838 0.004816455221992)
(0.664125143721387 -0.018769014348164 0.004774074220634)
(0.669182126182734 -0.018897252376769 0.004731698306419)
(0.670557549897225 -0.018947560557986 0.004785368294466)
(0.668087903822534 -0.018916472551051 0.004939327947856)
(0.665617961271725 -0.018885380812063 0.005093306083797)
(0.660657207124708 -0.018760755990798 0.005139832024727)
(0.655599617582633 -0.018632502567472 0.005182213026086)
(0.650464218035742 -0.018495963514250 0.005201306550315)
(0.644488773121532 -0.018270548356510 0.004971172109717)
(0.638322182492919 -0.018065028959425 0.004758195086216)
(0.631199396634207 -0.017958428687785 0.004630496844147)
(0.625546010447015 -0.017645271050487 0.004067370947660)
(0.618522906343013 -0.016778432420160 0.003253336623008)
(0.608028795823524 -0.015846456301832 0.002708918803284)
(0.592364948178214 -0.015043900606895 0.001491311366663)
(0.523134626372657 -0.013627563494346 0.000541376536308)