/*--------------------------------*- C++ -*----------------------------------*\
| =========                 |                                                 |
| \\      /  F ield         | OpenFOAM: The Open Source CFD Toolbox           |
|  \\    /   O peration     | Version:  4.x                                   |
|   \\  /    A nd           | Web:      www.OpenFOAM.org                      |
|    \\/     M anipulation  |                                                 |
\*---------------------------------------------------------------------------*/
FoamFile
{
    version     2.0;
    format      ascii;
    class       volVectorField;
    object      U;
}
// * * * * * * * * * * * * * * * * * * * * * * * * * * * * * * * * * * * * * //

dimensions      [0 1 -1 0 0 0 0];

internalField   uniform (0 0 0);

boundaryField
{
    topInlet
    {
        type            fixedValue;
        value           nonuniform List<vector>
400
(
(0.095425067050000 -0.000377967450000 0.000000000000000)
(0.095425067050000 -0.000377967450000 0.000000000000000)
(0.098946830800000 -0.001539420500000 0.000000000000000)
(0.098946830800000 -0.001539420500000 0.000000000000000)
(0.101798428800000 -0.002008989000000 0.000000000000000)
(0.101798428800000 -0.002008989000000 0.000000000000000)
(0.104791400100000 -0.002671010200000 0.000000000000000)
(0.104791400100000 -0.002671010200000 0.000000000000000)
(0.104791400100000 -0.002671010200000 0.000000000000000)
(0.104791400100000 -0.002671010200000 0.000000000000000)
(0.104305643050000 -0.002706604900000 0.000000000000000)
(0.104305643050000 -0.002706604900000 0.000000000000000)
(0.102494976865029 -0.002715725608187 0.000000000000000)
(0.101734378450000 -0.002730535800000 0.000000000000000)
(0.101734378450000 -0.002730535800000 0.000000000000000)
(0.101734378450000 -0.002730535800000 0.000000000000000)
(0.101798428800000 -0.002008989000000 0.000000000000000)
(0.095425067050000 -0.000377967450000 0.000000000000000)
(0.095425067050000 -0.000377967450000 0.000000000000000)
(0.095425067050000 -0.000377967450000 0.000000000000000)
(0.234021003689734 -0.000926929629137 0.000000000000000)
(0.311044910250000 -0.001232012250000 0.000000000000000)
(0.322524354000000 -0.005017852500000 0.000000000000000)
(0.322524354000000 -0.005017852500000 0.000000000000000)
(0.331819344000000 -0.006548445000000 0.000000000000000)
(0.331775847094014 -0.007038450961317 0.000000000000000)
(0.341305599398984 -0.008711599635062 0.000000000000000)
(0.341575150500000 -0.008706351000000 0.000000000000000)
(0.341575150500000 -0.008706351000000 0.000000000000000)
(0.341007219939553 -0.008747967108135 0.000000000000000)
(0.339991790250000 -0.008822374500000 0.000000000000000)
(0.339991790250000 -0.008822374500000 0.000000000000000)
(0.339278727265029 -0.008751066408187 0.000000000000000)
(0.331610567250000 -0.008900379000000 0.000000000000000)
(0.331610567250000 -0.008900379000000 0.000000000000000)
(0.331727412479512 -0.007584081720605 0.000000000000000)
(0.330906971944663 -0.006398206019096 0.000000000000000)
(0.311044910250000 -0.001232012250000 0.000000000000000)
(0.311044910250000 -0.001232012250000 0.000000000000000)
(0.251090114736648 -0.000994538367340 0.000000000000000)
(0.234021003689734 -0.000926929629137 0.000000000000000)
(0.582705033999999 -0.002308026000000 0.000000000000000)
(0.598921685713461 -0.007656164299563 0.000000000000000)
(0.604210383999999 -0.009400340000000 0.000000000000000)
(0.621623423999999 -0.012267720000000 0.000000000000000)
(0.621397585844013 -0.014811855961317 0.000000000000000)
(0.630927338148983 -0.016485004635062 0.000000000000000)
(0.639899747999999 -0.016310296000000 0.000000000000000)
(0.639899747999999 -0.016310296000000 0.000000000000000)
(0.637948943689552 -0.016453244608135 0.000000000000000)
(0.636933513999999 -0.016527652000000 0.000000000000000)
(0.638076376559584 -0.016443906741028 0.000000000000000)
(0.637603324765027 -0.016355011408187 0.000000000000000)
(0.621232305999999 -0.016673784000000 0.000000000000000)
(0.621232305999999 -0.016673784000000 0.000000000000000)
(0.621531492479511 -0.013303356720605 0.000000000000000)
(0.612593001944662 -0.010780693519096 0.000000000000000)
(0.586034440348671 -0.003406040924583 0.000000000000000)
(0.582705033999999 -0.002308026000000 0.000000000000000)
(0.251090114736648 -0.000994538367340 0.000000000000000)
(0.234021003689734 -0.000926929629137 0.000000000000000)
(0.754262690261240 -0.002987545667836 0.000000000000000)
(0.941189715863463 -0.009011847649563 0.000000000000000)
(0.966263793671570 -0.016099866605015 0.000000000000000)
(0.986681218420088 -0.020262483753295 0.000000000000000)
(0.986295682194014 -0.024605667361317 0.000000000000000)
(0.995825434498984 -0.026278816035062 0.000000000000000)
(1.014054603340461 -0.025923861985983 0.000000000000000)
(1.014081164623501 -0.026013819050731 0.000000000000000)
(1.012069581839554 -0.026161221308135 0.000000000000000)
(1.011927732075638 -0.026171615598432 0.000000000000000)
(1.013939314859585 -0.026024213341028 0.000000000000000)
(1.013466263065029 -0.025935318008187 0.000000000000000)
(0.995237803383880 -0.026290258248664 0.000000000000000)
(0.986273783469530 -0.024852363196325 0.000000000000000)
(0.986659322879512 -0.020509143720605 0.000000000000000)
(0.967492798344664 -0.016302245019096 0.000000000000000)
(0.940934236748673 -0.008927592424583 0.000000000000000)
(0.771360262475972 -0.003055267137372 0.000000000000000)
(0.251090114736648 -0.000994538367340 0.000000000000000)
(0.231572213470514 -0.002440633950445 0.000000000000000)
(0.738991375497939 -0.012427413145181 0.000000000000000)
(0.948262207213661 -0.016995041820545 0.000000000000000)
(0.980684594997407 -0.019996020909273 0.000000000000000)
(1.017631157870088 -0.020924287253295 0.000000000000000)
(1.038284613462923 -0.023171653238384 0.000000000000000)
(1.049043348947431 -0.024471080287557 0.000000000000000)
(1.040543038890344 -0.025927471140957 0.000000000000000)
(1.039310990809748 -0.025101222391371 0.000000000000000)
(1.039226047135990 -0.023959063091771 0.000000000000000)
(1.038568657305988 -0.024387521373168 0.000000000000000)
(1.038653600979746 -0.025529680672768 0.000000000000000)
(1.037090745065028 -0.026170226308187 0.000000000000000)
(1.042632073953911 -0.024914387471274 0.000000000000000)
(1.038596148354455 -0.023204830783486 0.000000000000000)
(1.017710443551203 -0.020980564956664 0.000000000000000)
(0.984856539266476 -0.019323914644191 0.000000000000000)
(0.949014971857388 -0.017027361714822 0.000000000000000)
(0.755667539653635 -0.012755625364390 0.000000000000000)
(0.248220617947781 -0.002768299817053 0.000000000000000)
(0.228253030570514 -0.004492366050445 0.000000000000000)
(0.742652931983940 -0.014192009814965 0.000000000000000)
(0.956758539213660 -0.018560771970545 0.000000000000000)
(1.001109266956411 -0.019439515862898 0.000000000000000)
(1.033138122034628 -0.020183423764266 0.000000000000000)
(1.048347825312923 -0.022570653988384 0.000000000000000)
(1.056576016908052 -0.023880385047695 0.000000000000000)
(1.050249796840344 -0.025097118190957 0.000000000000000)
(1.070068128565961 -0.026303016019555 0.000000000000000)
(1.077206181685990 -0.025858145241771 0.000000000000000)
(1.077205363155988 -0.025847139223168 0.000000000000000)
(1.070293497159797 -0.026313845492472 0.000000000000000)
(1.049265763333826 -0.025210787830161 0.000000000000000)
(1.052695285803911 -0.024313388221274 0.000000000000000)
(1.048659360204455 -0.022603831533486 0.000000000000000)
(1.033309656484311 -0.020220598133458 0.000000000000000)
(1.011421693666476 -0.019154476994191 0.000000000000000)
(0.957511303857388 -0.018593091864822 0.000000000000000)
(0.764163871653635 -0.014321355514390 0.000000000000000)
(0.251134298803513 -0.004563658499135 0.000000000000000)
(0.232013078372846 -0.004406964552630 0.000369039600000)
(0.752346311333940 -0.013862555414965 0.000369039600000)
(0.983003578038752 -0.017910147691752 0.001287961575000)
(1.028564494006411 -0.018764149012898 0.001287961575000)
(1.047708875009628 -0.020147669964266 0.001508248800000)
(1.059215043288908 -0.022641248066977 0.001508248800000)
(1.063422290233052 -0.024066441497695 0.001508248800000)
(1.061653386309936 -0.024668737459181 0.001487502638298)
(1.081337925015961 -0.025583731269555 0.001430919850000)
(1.104725749857355 -0.026707569384619 0.001430919850000)
(1.102985581451190 -0.026703913607536 0.001137092125000)
(1.079597756609797 -0.025580075492472 0.001137092125000)
(1.061558500278883 -0.024661905041089 0.001483339602165)
(1.063408590327553 -0.024073168000746 0.001508248800000)
(1.059386672760999 -0.022678443029105 0.001508248800000)
(1.047880409459311 -0.020184844333458 0.001508248800000)
(1.033547899030931 -0.018767336396180 0.001231691950000)
(0.983628003228621 -0.017927858982841 0.000369039600000)
(0.769446892190707 -0.014173310304038 0.000369039600000)
(0.249085193053513 -0.004717202149135 0.000369039600000)
(0.229527404692191 -0.004593221123155 0.000816704158474)
(0.745332825083940 -0.014388090164965 0.001632153600000)
(0.978340033728375 -0.018442010831176 0.005450532662981)
(1.024100118256411 -0.019296548512898 0.005696275200000)
(1.059079515814277 -0.020662453066176 0.005783217344492)
(1.068363085413908 -0.023617568066977 0.006670540800000)
(1.072570332358052 -0.025042761497695 0.006670540800000)
(1.065636466809936 -0.024784675459181 0.006385120388298)
(1.085321005515961 -0.025699669269555 0.006328537600000)
(1.103723596528275 -0.026786768133045 0.005583296012286)
(1.100241206951190 -0.026770272857536 0.005029024000000)
(1.078888482946700 -0.025661432651134 0.005333250808782)
(1.065541580778883 -0.024777843041089 0.006380957352165)
(1.072556632452553 -0.025049488000746 0.006670540800000)
(1.068534714885999 -0.023654763029105 0.006670540800000)
(1.059194954862684 -0.020711276005908 0.005805612195059)
(1.036801413733358 -0.019276348349354 0.005547007849434)
(0.976614516978621 -0.018453393732841 0.001632153600000)
(0.762433405940708 -0.014698845054038 0.001632153600000)
(0.246268759943342 -0.004928243194584 0.000876273230282)
(0.229527404692191 -0.004593221123155 0.000816704158474)
(0.739779571159092 -0.014804206745086 0.002632282854981)
(0.971709059478375 -0.018938883181176 0.006644757062981)
(1.025368098833966 -0.019783278268875 0.009798022753098)
(1.069970323114277 -0.021120022741176 0.009769013394492)
(1.077713730455559 -0.024394962331896 0.011271212630155)
(1.078886540401042 -0.025577217052933 0.011431736210698)
(1.069402312109936 -0.024894290259181 0.011015624538298)
(1.085086203423611 -0.025779800840473 0.010360985787776)
(1.101128898828275 -0.026849508183045 0.009262963887286)
(1.098697023651365 -0.026840754793705 0.008865733058291)
(1.082654328246700 -0.025771047451134 0.009963754958782)
(1.069307426078883 -0.024887457841089 0.011011461502165)
(1.078791285409752 -0.025570358067278 0.011427556986779)
(1.077829233452031 -0.024443812317351 0.011293619886466)
(1.070085762162684 -0.021168845680908 0.009791408245059)
(1.032580522783358 -0.019779711049354 0.009714894274434)
(0.972218892881284 -0.018956285876789 0.005584446927141)
(0.756548841075512 -0.015139787434910 0.002691951252720)
(0.246268759943342 -0.004928243194584 0.000876273230282)
(0.230498126406476 -0.004621951551726 0.000171064187045)
(0.740750292873378 -0.014832937173658 0.001986642883552)
(0.969983347442661 -0.019169662859748 0.006484739091553)
(1.023844671333966 -0.020166423908161 0.011602445731669)
(1.068446895614277 -0.021503168380462 0.011573436373064)
(1.076190302955559 -0.024778107971182 0.013075635608726)
(1.081803554358185 -0.025599540252933 0.013791252803555)
(1.072319326067079 -0.024916613459181 0.013375141131155)
(1.085416752380754 -0.025783062790473 0.012333852255633)
(1.101459447785418 -0.026852770133045 0.011235830355143)
(1.100806284665651 -0.026586410079419 0.011789955394006)
(1.084763589260986 -0.025516702736848 0.012887977294496)
(1.069812527174167 -0.024703425474930 0.013556335547202)
(1.077804384281181 -0.025258674752993 0.014087092608207)
(1.079739642323460 -0.024273622128066 0.013690990007894)
(1.071996171034112 -0.020998655491622 0.012188778366487)
(1.024912041533358 -0.020181478063640 0.011593362878005)
(0.969299734859855 -0.019199974405360 0.006248779844999)
(0.756548841075512 -0.015139787434910 0.002691951252720)
(0.246268759943342 -0.004928243194584 0.000876273230282)
(0.231485324685633 -0.004651169636815 -0.000485534567643)
(0.742386273159092 -0.014881357245086 0.000898530554981)
(0.971619327728375 -0.019218082931176 0.005396626762981)
(1.015783287208908 -0.020433000924557 0.011408351513463)
(1.058415699114277 -0.021835309466176 0.011882912744492)
(1.068092446924779 -0.024798706387203 0.013718956864824)
(1.083838174381427 -0.025536316111395 0.014617514571582)
(1.074654615809936 -0.024879113659181 0.014178296188298)
(1.087752042123611 -0.025745562990473 0.013137007312776)
(1.103014387219390 -0.026547988246015 0.012584533781703)
(1.101780249251365 -0.026082635293705 0.013544822408291)
(1.085737553846700 -0.025012927951134 0.014642844308782)
(1.072147816917024 -0.024665925674930 0.014359490604345)
(1.073560313509752 -0.024658265867278 0.015395876836779)
(1.075495571552032 -0.023673213242351 0.014999774236466)
(1.062584639914583 -0.021230942356095 0.012605257162357)
(1.016151961138424 -0.020471310782586 0.011577886124626)
(0.967272685231284 -0.019265702076789 0.004512044602141)
(0.757669073554558 -0.015172942930196 0.001946869675662)
(0.246268759943342 -0.004928243194584 0.000876273230282)
(0.231485324685633 -0.004651169636815 -0.000485534567643)
(0.744022253444807 -0.014929777316515 -0.000189581773591)
(0.973255308014089 -0.019266503002605 0.004308514434410)
(1.013756237580336 -0.020498728595986 0.009671616270606)
(1.048384502614277 -0.022167450551890 0.012192389115921)
(1.063848376153350 -0.024198297501488 0.015027741093396)
(1.079594103609998 -0.024935907225680 0.015926298800153)
(1.076989905552793 -0.024841613859181 0.014981451245441)
(1.090087331866468 -0.025708063190473 0.013940162369919)
(1.103988351805105 -0.026044213460300 0.014339400795988)
(1.102754213837079 -0.025578860507990 0.015299689422577)
(1.087748231955171 -0.024864243630380 0.015672937634312)
(1.074483106659881 -0.024628425874930 0.015162645661488)
(1.069316242738324 -0.024057856981564 0.016704661065350)
(1.071251500780603 -0.023072804356637 0.016308558465037)
(1.052553443414583 -0.021563083441809 0.012914733533786)
(1.014124911509852 -0.020537038454014 0.009841150881769)
(0.966192933844430 -0.019326953819974 0.002943050098677)
(0.759305053840272 -0.015221363001625 0.000858757347091)
(0.246268759943342 -0.004928243194584 0.000876273230282)
(0.231485324685633 -0.004651169636815 -0.000485534567643)
(0.745658233730521 -0.014978197387944 -0.001277694102162)
(0.971275458132990 -0.019332007658014 0.002580136982364)
(1.011729187951765 -0.020564456267414 0.007934881027749)
(1.038353306114277 -0.022499591637604 0.012501865487350)
(1.059604305381922 -0.023597888615774 0.016336525321967)
(1.075350032838570 -0.024335498339966 0.017235083028725)
(1.079325195295651 -0.024804114059181 0.015784606302584)
(1.091670713400466 -0.025413023163949 0.015268981725036)
(1.104962316390819 -0.025540438674586 0.016094267810274)
(1.103728178422793 -0.025075085722276 0.017054556436863)
(1.090083521698028 -0.024826743830380 0.016476092691455)
(1.076818396402738 -0.024590926074930 0.015965800718630)
(1.067157066951630 -0.023635825056212 0.017853219429819)
(1.067007430009175 -0.022472395470923 0.017617342693609)
(1.042522246914583 -0.021895224527523 0.013224209905214)
(1.012097861881281 -0.020602766125443 0.008104415638912)
(0.967828914130144 -0.019375373891403 0.001854937770106)
(0.760941034125987 -0.015269783073054 -0.000229354981481)
(0.246308150005241 -0.004929409021353 0.000850074374250)
(0.231485324685633 -0.004651169636815 -0.000485534567643)
(0.746090056022784 -0.014990978022538 -0.001564904873628)
(0.969248408504419 -0.019397735329443 0.000843401739507)
(1.009702138323193 -0.020630183938843 0.006198145784892)
(1.030617524315124 -0.022461844627900 0.013207708907559)
(1.055360234610493 -0.022997479730060 0.017645309550538)
(1.071105962067141 -0.023735089454252 0.018543867257296)
(1.080767667382786 -0.024690227630237 0.016656375117936)
(1.092644677986181 -0.024909248378235 0.017023848739322)
(1.105936280976533 -0.025036663888872 0.017849134824560)
(1.105710414431237 -0.024916659541017 0.018104533833835)
(1.092418811440885 -0.024789244030380 0.017279247748597)
(1.079153686145595 -0.024553426274930 0.016768955775773)
(1.069492356694487 -0.023598325256212 0.018656374486962)
(1.057233965044865 -0.022763005138880 0.017971323567052)
(1.032491050414583 -0.022227365613238 0.013533686276643)
(1.010070812252710 -0.020668493796871 0.006367680396055)
(0.969464894415858 -0.019423793962831 0.000766825441534)
(0.762577014411701 -0.015318203144482 -0.001317467310052)
(0.247944130290955 -0.004977829092782 -0.000238037954321)
(0.231485324685633 -0.004651169636815 -0.000485534567643)
(0.746090056022784 -0.014990978022538 -0.001564904873628)
(0.972193450810133 -0.019466292675157 -0.000244624361922)
(1.012647180628908 -0.020698741284557 0.005110119683463)
(1.034789891949410 -0.022208256505043 0.011704038711845)
(1.059532602244779 -0.022743891607203 0.016141639354824)
(1.071217215151427 -0.023465966041395 0.015265972071582)
(1.080933063088624 -0.024396682596844 0.013240436629498)
(1.095187290079038 -0.025236142225378 0.012484987206465)
(1.108478893069391 -0.025363557736015 0.013310273291703)
(1.107705570362666 -0.024715742461017 0.014253426612407)
(1.094413967372313 -0.024588326950380 0.013428140527169)
(1.081148842077024 -0.024352509194930 0.012917848554345)
(1.071487512625916 -0.023397408176212 0.014805267265533)
(1.059901671964865 -0.022751881301737 0.016207831942766)
(1.035158757334583 -0.022216241776095 0.011770194652357)
(1.014819608458424 -0.020588102102586 0.004072170914626)
(0.971492046688716 -0.019342459968546 0.000299032917249)
(0.764604166684558 -0.015236869150196 -0.001785259834338)
(0.249971282563813 -0.004896495098496 -0.000705830478607)
(0.231485324685633 -0.004651169636815 -0.000485534567643)
(0.747084415160268 -0.014932672518956 -0.001679675429291)
(0.976885445496800 -0.019535844068490 -0.001104721891922)
(1.017339175315574 -0.020768292677891 0.004250022153463)
(1.041919390536077 -0.022076525525043 0.009212207801845)
(1.065998410009691 -0.022609621760283 0.013359854338115)
(1.072858724188094 -0.023313241438061 0.010376541171582)
(1.082808707115290 -0.024138348850177 0.007754049646164)
(1.098281045029038 -0.025854893215378 0.005734816149798)
(1.111572648019390 -0.025982308726015 0.006560102235036)
(1.110133569148657 -0.024855124488299 0.008193974291351)
(1.096289611398980 -0.024329993203714 0.007941753543835)
(1.083024486103690 -0.024094175448263 0.007431461571011)
(1.073363156652582 -0.023139074429546 0.009318880282200)
(1.066058319176847 -0.022616428799469 0.013290980462854)
(1.042288255921250 -0.022084510796095 0.009278363742357)
(1.021949107045090 -0.020456371122586 0.001580340004626)
(0.973656633485382 -0.019215536688546 0.000049192773915)
(0.766768753481225 -0.015109945870196 -0.002035099977671)
(0.251943105344869 -0.004780874779951 -0.000933421484431)
(0.231485324685633 -0.004651169636815 -0.000485534567643)
(0.749248986949156 -0.014805750118956 -0.001929513840402)
(0.981577407652355 -0.019605394979601 -0.001964813458588)
(1.022031137471130 -0.020837843589002 0.003389930586796)
(1.049048839691632 -0.021944795458376 0.006720394168511)
(1.067639907665247 -0.022456898215839 0.008470457338115)
(1.074500221843649 -0.023160517893617 0.005487144171582)
(1.084684338137512 -0.023880016894622 0.002267700701720)
(1.100875520887941 -0.026114156022505 -0.000497330766238)
(1.114666381519390 -0.026601055426015 -0.000190022020520)
(1.113227302648657 -0.025473871188299 0.001443850035795)
(1.098165242421203 -0.024071661248158 0.002455404599391)
(1.084900117125912 -0.023835843492708 0.001945112626567)
(1.075071946992498 -0.022955997785174 0.004257912269713)
(1.067699816832402 -0.022463705255024 0.008401583462854)
(1.049417705076805 -0.021952780729428 0.006786550109024)
(1.026895566652350 -0.020504906333543 0.000549880715852)
(0.975821205274271 -0.019088614288546 -0.000200645637196)
(0.768933325270114 -0.014983023470196 -0.002284938388782)
(0.251943105344869 -0.004780874779951 -0.000933421484431)
(0.231485324685633 -0.004651169636815 -0.000485534567643)
(0.751413573745823 -0.014678826838956 -0.002179353983736)
(0.984118920844768 -0.019507773060402 -0.002305664680167)
(1.026723132157797 -0.020907394982335 0.002529833056796)
(1.056178338278299 -0.021813064478376 0.004228563258511)
(1.069281416701913 -0.022304173612506 0.003581026438115)
(1.076141730880316 -0.023007793290284 0.000597713271582)
(1.086559982164179 -0.023621683147955 -0.003218686281614)
(1.102751164914608 -0.025855822275839 -0.005983717749571)
(1.117760136469390 -0.027219806416015 -0.006940193077186)
(1.116321057598657 -0.026092622178299 -0.005306321020871)
(1.100040886447869 -0.023813327501491 -0.003030982383942)
(1.086775761152579 -0.023577509746041 -0.003541274356766)
(1.076713456029165 -0.022803273181841 -0.000631518630287)
(1.069341325869069 -0.022310980651691 0.003512152562854)
(1.056547203663472 -0.021821049749428 0.004294719199024)
(1.031587561339017 -0.020574457726876 -0.000310216814148)
(0.979254046779979 -0.019060282110777 -0.000756713282402)
(0.771097912066780 -0.014856100190196 -0.002534778532115)
(0.251943105344869 -0.004780874779951 -0.000933421484431)
(0.231569135288152 -0.004646255296310 -0.000495208124268)
(0.753578160542490 -0.014551903558956 -0.002429194127069)
(0.986283507641435 -0.019380849780402 -0.002555504823500)
(1.031981069935315 -0.020930212350546 0.001290877370908)
(1.063307836864966 -0.021681333498376 0.001736732348511)
(1.070922925738580 -0.022151449009172 -0.001308404461885)
(1.077897927858808 -0.022803337438721 -0.004584128705283)
(1.088435626190846 -0.023363349401289 -0.008705073264947)
(1.104626808941275 -0.025597488529172 -0.011470104732905)
(1.120853891419390 -0.027838557406015 -0.013690364133853)
(1.119414812548657 -0.026711373168299 -0.012056492077538)
(1.102958224929700 -0.024305052135711 -0.009598122225245)
(1.088651405179246 -0.023319175999374 -0.009027661340100)
(1.078354965065832 -0.022650548578507 -0.005520949530287)
(1.070982834905736 -0.022158256048358 -0.001377278337146)
(1.063676702250138 -0.021689318769428 0.001802888289024)
(1.036279556025683 -0.020644009120210 -0.001170314344148)
(0.983946041466646 -0.019129833504110 -0.001616810812402)
(0.773262498863447 -0.014729176910196 -0.002784618675449)
(0.251943105344869 -0.004780874779951 -0.000933421484431)
(0.233733716081708 -0.004519332368310 -0.000745047574712)
(0.755742741336045 -0.014424980630956 -0.002679033577513)
(0.988448088434990 -0.019253926852402 -0.002805344273944)
(1.039110548749538 -0.020798481735879 -0.001200946628425)
(1.068548074812708 -0.021542375827102 -0.001580465650045)
(1.072564430222802 -0.021998724829394 -0.006197821801885)
(1.079773566683697 -0.022545004408499 -0.010070500473060)
(1.090311265015735 -0.023105016371066 -0.014191445032725)
(1.106502447766164 -0.025339155498950 -0.016956476500682)
(1.122959035385120 -0.027745476531538 -0.019414846352975)
(1.122508558918657 -0.027330122442299 -0.018806644413760)
(1.106051971299700 -0.024923801409711 -0.016348274561467)
(1.090527044004135 -0.023060842969152 -0.014514033107878)
(1.079996469550054 -0.022497824398730 -0.010410366870287)
(1.072624339389958 -0.022005531868580 -0.006266695677146)
(1.068607950811240 -0.021549179097580 -0.001649301393385)
(1.040971537699906 -0.020713560320654 -0.002030409488814)
(0.988638023140868 -0.019199384704554 -0.002476905957068)
(0.773980688453862 -0.014687064956720 -0.002867513290941)
(0.251943105344869 -0.004780874779951 -0.000933421484431)
)
;
    }

    bottomInlet
    {
        type            fixedValue;
        value           nonuniform List<vector>
400
(
(0.095425067050000 0.000377967450000 0.000000000000000)
(0.095425067050000 0.000377967450000 0.000000000000000)
(0.095425067050000 0.000377967450000 0.000000000000000)
(0.101333359407216 0.001932406698720 0.000000000000000)
(0.101783929920116 0.002172323320328 0.000000000000000)
(0.101734378450000 0.002730535800000 0.000000000000000)
(0.101734378450000 0.002730535800000 0.000000000000000)
(0.101734378450000 0.002730535800000 0.000000000000000)
(0.104791400100000 0.002671010200000 0.000000000000000)
(0.104791400100000 0.002671010200000 0.000000000000000)
(0.104305643050000 0.002706604900000 0.000000000000000)
(0.104305643050000 0.002706604900000 0.000000000000000)
(0.101734378450000 0.002730535800000 0.000000000000000)
(0.101734378450000 0.002730535800000 0.000000000000000)
(0.101734378450000 0.002730535800000 0.000000000000000)
(0.101789683878508 0.002107503217623 0.000000000000000)
(0.100823280734123 0.001848412784639 0.000000000000000)
(0.095425067050000 0.000377967450000 0.000000000000000)
(0.000000000000000 0.000000000000000 0.000000000000000)
(0.000000000000000 0.000000000000000 0.000000000000000)
(0.219308477338272 0.000868655045319 0.000000000000000)
(0.311044910250000 0.001232012250000 0.000000000000000)
(0.311044910250000 0.001232012250000 0.000000000000000)
(0.324910882607216 0.005410838698720 0.000000000000000)
(0.331804845120116 0.006711779320328 0.000000000000000)
(0.331610567250000 0.008900379000000 0.000000000000000)
(0.331610567250000 0.008900379000000 0.000000000000000)
(0.338473323749966 0.008766749034274 0.000000000000000)
(0.341575150500000 0.008706351000000 0.000000000000000)
(0.340987836025637 0.008749387498432 0.000000000000000)
(0.339991790250000 0.008822374500000 0.000000000000000)
(0.339991790250000 0.008822374500000 0.000000000000000)
(0.338290238815071 0.008770314020672 0.000000000000000)
(0.331610567250000 0.008900379000000 0.000000000000000)
(0.331610567250000 0.008900379000000 0.000000000000000)
(0.331810599078508 0.006646959217623 0.000000000000000)
(0.324400803934123 0.005326844784639 0.000000000000000)
(0.311044910250000 0.001232012250000 0.000000000000000)
(0.021946803301683 0.000086928702657 0.000000000000000)
(0.000000000000000 0.000000000000000 0.000000000000000)
(0.219308477338272 0.000868655045319 0.000000000000000)
(0.582705033999999 0.002308026000000 0.000000000000000)
(0.582705033999999 0.002308026000000 0.000000000000000)
(0.606596912607215 0.009793326198720 0.000000000000000)
(0.621608925120115 0.012431054320328 0.000000000000000)
(0.621232305999999 0.016673784000000 0.000000000000000)
(0.621232305999999 0.016673784000000 0.000000000000000)
(0.636797921249965 0.016370694034274 0.000000000000000)
(0.639899747999999 0.016310296000000 0.000000000000000)
(0.637929559775636 0.016454664998432 0.000000000000000)
(0.636933513999999 0.016527652000000 0.000000000000000)
(0.638095760473500 0.016442486350731 0.000000000000000)
(0.636614836315070 0.016374259020672 0.000000000000000)
(0.621232305999999 0.016673784000000 0.000000000000000)
(0.621232305999999 0.016673784000000 0.000000000000000)
(0.621614679078507 0.012366234217623 0.000000000000000)
(0.606086833934122 0.009709332284639 0.000000000000000)
(0.582705033999999 0.002308026000000 0.000000000000000)
(0.293606927051682 0.001162942452657 0.000000000000000)
(0.000000000000000 0.000000000000000 0.000000000000000)
(0.219308477338272 0.000868655045319 0.000000000000000)
(0.677058926434231 0.002681750653526 0.000000000000000)
(0.935304147869159 0.007070828494611 0.000000000000000)
(0.961496709007217 0.015314877698720 0.000000000000000)
(0.986736755520116 0.019636841320328 0.000000000000000)
(0.986351438983688 0.023977550057231 0.000000000000000)
(0.993242023604417 0.026329119598842 0.000000000000000)
(1.012660859549967 0.025951000634274 0.000000000000000)
(1.014061780709585 0.026015239441028 0.000000000000000)
(1.012050197925638 0.026162641698432 0.000000000000000)
(1.011947115989553 0.026170195208135 0.000000000000000)
(1.013958698773501 0.026022792950731 0.000000000000000)
(1.012477774615071 0.025954565620672 0.000000000000000)
(0.993059445212613 0.026332674721953 0.000000000000000)
(0.986357189758173 0.023912765822224 0.000000000000000)
(0.986742509478509 0.019572021217623 0.000000000000000)
(0.960986630334123 0.015230883784639 0.000000000000000)
(0.934673844013381 0.006862958691953 0.000000000000000)
(0.635874957201683 0.002518625802657 0.000000000000000)
(0.178171943385423 0.000705718080006 0.000000000000000)
(0.217222310367278 0.002158206079205 0.000000000000000)
(0.663690471787910 0.010945377079551 0.000000000000000)
(0.942313357711040 0.016739628407346 0.000000000000000)
(0.974018121505350 0.019336388878003 0.000000000000000)
(1.017702842920116 0.020116733220328 0.000000000000000)
(1.034389340689484 0.022756818201801 0.000000000000000)
(1.043562711388816 0.024754937776036 0.000000000000000)
(1.036285341549966 0.026185908934274 0.000000000000000)
(1.039310172279746 0.025090216372768 0.000000000000000)
(1.039225228605988 0.023948057073168 0.000000000000000)
(1.039226047135990 0.023959063091771 0.000000000000000)
(1.039310990809748 0.025101222391371 0.000000000000000)
(1.036102256615071 0.026189473920672 0.000000000000000)
(1.043647848179942 0.024740350961785 0.000000000000000)
(1.034077805797952 0.022723640656699 0.000000000000000)
(1.017708596878508 0.020051913117623 0.000000000000000)
(0.973096112936281 0.019337450043085 0.000000000000000)
(0.940617188269606 0.018092501776244 0.000000000000000)
(0.643667365053786 0.012668350607742 0.000000000000000)
(0.197245469763871 0.003882090195063 0.000000000000000)
(0.219347068823392 0.003986015130810 0.000000000000000)
(0.672186803787910 0.012511107229551 0.000000000000000)
(0.950809689711040 0.018305358557346 0.000000000000000)
(0.997736608425628 0.019253037926352 0.000000000000000)
(1.030998711538428 0.019719777914793 0.000000000000000)
(1.044452552539484 0.022155818951801 0.000000000000000)
(1.056711657495211 0.023813787009956 0.000000000000000)
(1.050540316337663 0.025047342366807 0.000000000000000)