/*--------------------------------*- C++ -*----------------------------------*\
| =========                 |                                                 |
| \\      /  F ield         | OpenFOAM: The Open Source CFD Toolbox           |
|  \\    /   O peration     | Version:  4.x                                   |
|   \\  /    A nd           | Web:      www.OpenFOAM.org                      |
|    \\/     M anipulation  |                                                 |
\*---------------------------------------------------------------------------*/
FoamFile
{
    version     2.0;
    format      ascii;
    class       volVectorField;
    object      U;
}
// * * * * * * * * * * * * * * * * * * * * * * * * * * * * * * * * * * * * * //

dimensions      [0 1 -1 0 0 0 0];

internalField   uniform (0 0 0);

boundaryField
{
    topInlet
    {
        type            fixedValue;
        value           nonuniform List<vector>
30
(
(0.269538503845181 -0.005415761481812 -0.000565350140902)
(0.823994928921380 -0.016527548421391 0.000277311798553)
(0.976906528888591 -0.019315565132659 0.004863606458485)
(1.012238643276000 -0.020294967664059 0.009107859718976)
(1.042657973064212 -0.021300065379640 0.011853228175964)
(1.052602448958507 -0.023188861248592 0.012634716063390)
(1.064582538198398 -0.024298952063442 0.014814396078145)
(1.077038080785651 -0.024713366990911 0.016345687829637)
(1.081996324674078 -0.025203529738476 0.015377054854537)
(1.079237517001507 -0.025037735040126 0.014963272272035)
(1.077899895962118 -0.024927624421893 0.014613806305749)
(1.087447970086924 -0.025564278347002 0.013960300505627)
(1.095703130476706 -0.026050314445847 0.013542546508719)
(1.101610745954332 -0.026106945827575 0.013909355000830)
(1.107517652319549 -0.026163570411634 0.014276119463593)
(1.107047608840902 -0.025959931675983 0.014702224278098)
(1.099918092583921 -0.025484544236610 0.015190194958373)
(1.092787720442635 -0.025009099727916 0.015678224218562)
(1.086620803994764 -0.024863417656790 0.015493234626660)
(1.080713188517137 -0.024806786275062 0.015126426134550)
(1.074928820938692 -0.024717218490464 0.014865661765235)
(1.070455495998038 -0.024274993926081 0.015739561908786)
(1.068501939478072 -0.024048359847359 0.016419752180919)
(1.072893093376003 -0.024364551798917 0.016612409963519)
(1.071589914612288 -0.023016825618813 0.016018831488799)
(1.055894841654813 -0.021543862610125 0.013162560064898)
(1.017376595612301 -0.020828865530988 0.011470545772346)
(0.977535824484202 -0.019481258227928 0.004259365861010)
(0.858880910705627 -0.017219521093765 0.000830692210072)
(0.282930020331026 -0.005661895351894 0.001006721286599)
)
;
    }

    bottomInlet
    {
        type            fixedValue;
        value           nonuniform List<vector>
30
(
(0.282930020331026 0.005661895351894 0.001006721286599)
(0.858880910705627 0.017219521093765 0.000830692210072)
(0.984186426487715 0.019449834526257 0.005437006490274)
(1.017376595612301 0.020828865530988 0.011470545772346)
(1.050694379360379 0.022381876365407 0.012264555930316)
(1.063745827596134 0.024280838786296 0.014664332182062)
(1.077475383066069 0.024756597879127 0.016260257298499)
(1.081948708006723 0.025198822443509 0.015386357154948)
(1.080077312666193 0.025098205849462 0.015000117523729)
(1.075686158768262 0.024782013897904 0.014807459741129)
(1.080713188517137 0.024806786275062 0.015126426134550)
(1.086620803994764 0.024863417656790 0.015493234626660)
(1.092787720442635 0.025009099727916 0.015678224218562)
(1.099918092583921 0.025484544236610 0.015190194958373)
(1.107047608840902 0.025959931675983 0.014702224278098)
(1.106893019017812 0.025949623815323 0.014712804982092)
(1.099763502760831 0.025474236375949 0.015200775662367)
(1.092633130619545 0.024998791867255 0.015688804922557)
(1.085366653606330 0.024851395163170 0.015415363442491)
(1.077455937396355 0.024775561725613 0.014924180850211)
(1.071311006640391 0.024359568113326 0.015572430997645)
(1.068455197486994 0.024044994116683 0.016417701419647)
(1.073322362798347 0.024395462019681 0.016631243759139)
(1.071851769152181 0.023127572446651 0.016069630532727)
(1.061991745925648 0.021675849603586 0.014256038749709)
(1.046367913562562 0.021176582148905 0.010904804382901)
(1.019505907757547 0.020053080955313 0.007250027619554)
(0.968256729833667 0.019356434922322 0.003331962436384)
(0.823994928921380 0.016527548421391 0.000277311798553)
(0.269538503845181 0.005415761481812 -0.000565350140902)
)
;
    }

    outlet
    {
        type zeroGradient; 
    }

    walls
    {
        type noSlip; 
    }

    reflecting
    {
        type zeroGradient; 
    }

    frontBack
    {
        type empty; 
    }
}

// ************************************************************************* //
