/*--------------------------------*- C++ -*----------------------------------*\
| =========                 |                                                 |
| \\      /  F ield         | OpenFOAM: The Open Source CFD Toolbox           |
|  \\    /   O peration     | Version:  4.x                                   |
|   \\  /    A nd           | Web:      www.OpenFOAM.org                      |
|    \\/     M anipulation  |                                                 |
\*---------------------------------------------------------------------------*/
FoamFile
{
    version     2.0;
    format      ascii;
    class       volVectorField;
    object      U;
}
// * * * * * * * * * * * * * * * * * * * * * * * * * * * * * * * * * * * * * //

dimensions      [0 1 -1 0 0 0 0];

internalField   uniform (0 0 0);

boundaryField
{
    topInlet
    {
        type            fixedValue;
        value           nonuniform List<vector>
100
(
(0.096620219450000 -0.002274581450000 0.000000000000000)
(0.097431134921993 -0.002292303069485 0.000000000000000)
(0.103512412250000 -0.002425202350000 0.000000000000000)
(0.107702864100000 -0.002937965300000 0.000000000000000)
(0.107702864100000 -0.002937965300000 0.000000000000000)
(0.108939568050000 -0.002932990350000 0.000000000000000)
(0.104897506950000 -0.002700025450000 0.000000000000000)
(0.104144059350000 -0.002599325600000 0.000000000000000)
(0.096620219450000 -0.002274581450000 0.000000000000000)
(0.096620219450000 -0.002274581450000 0.000000000000000)
(0.138118131246982 -0.003251503060450 0.000000000000000)
(0.347472209971994 -0.008178636119485 0.000000000000000)
(0.372513671172037 -0.009011184825942 0.000000000000000)
(0.383373674632908 -0.010282298462536 0.000000000000000)
(0.387845438339635 -0.010535336683888 0.000000000000000)
(0.390646224245434 -0.010524069824231 0.000000000000000)
(0.377183932438268 -0.009757307792691 0.000000000000000)
(0.373655893500001 -0.009326056000000 0.000000000000000)
(0.346661294500000 -0.008160914500000 0.000000000000000)
(0.148281874471056 -0.003490772459047 0.000000000000000)
(0.138118131246982 -0.003251503060450 0.000000000000000)
(0.565444480562491 -0.013823220756826 0.000000000000000)
(0.607026998800243 -0.014859568884426 0.000000000000000)
(0.621722739256807 -0.016949177990915 0.000000000000000)
(0.631498279944731 -0.018117870591726 0.000000000000000)
(0.630852821664666 -0.017750684630902 0.000000000000000)
(0.618709418479136 -0.016825108336343 0.000000000000000)
(0.609319293819347 -0.014708826788223 0.000000000000000)
(0.566090471771506 -0.013829043095764 0.000000000000000)
(0.148281874471056 -0.003490772459047 0.000000000000000)
(0.138617456866908 -0.003680906697739 0.000000000000000)
(0.565900633012490 -0.015237673206826 0.000000000000000)
(0.616800114500773 -0.017071177145221 0.000000000000000)
(0.638773627779851 -0.017835862105772 0.000000000000000)
(0.653125031789221 -0.018825582062195 0.000000000000000)
(0.653203089057140 -0.018827724684847 0.000000000000000)
(0.638977070150903 -0.017831836369404 0.000000000000000)
(0.616907252979458 -0.017070160664408 0.000000000000000)
(0.566546624221506 -0.015243495545764 0.000000000000000)
(0.148790786392267 -0.004028907982562 0.000000000000000)
(0.138486221306092 -0.003785613752483 0.000325420058920)
(0.565611107184986 -0.015410762265574 0.000943926092428)
(0.614061670095202 -0.016871460300608 0.001370181499990)
(0.633573241767383 -0.018204089117962 0.002728407537142)
(0.657800959472483 -0.018629742460578 0.002754190611898)
(0.656041196489171 -0.018521760294109 0.002503852293459)
(0.633726983137341 -0.018206390025518 0.002731163832652)
(0.615018289229459 -0.016963955039408 0.001416093750000)
(0.566497503654996 -0.015451935318217 0.000933046875000)
(0.148677051291406 -0.004064186925884 0.000349366849171)
(0.140697213959612 -0.003480793004000 -0.000042915230076)
(0.567978357184986 -0.015106498872717 0.000922147074571)
(0.611849679023774 -0.016425618782751 0.002479587749990)
(0.636084507392384 -0.018223321260819 0.004493956644285)
(0.658498912597483 -0.018540318353435 0.004272739719041)
(0.662422479971314 -0.018686304936966 0.004436303186317)
(0.637382204119484 -0.018107157882661 0.004394579011223)
(0.612124976186144 -0.016442735704764 0.002482260012076)
(0.568601372855611 -0.015107742586123 0.000976836035258)
(0.148677051291406 -0.004064186925884 0.000349366849171)
(0.140697213959612 -0.003480793004000 -0.000042915230076)
(0.572003357184986 -0.014551588158431 0.000251611360286)
(0.610335799031606 -0.015872777224814 0.003231939598532)
(0.637716355552069 -0.018224158871465 0.005196084831300)
(0.663176651563584 -0.018827139100778 0.005267265671295)
(0.667156320341756 -0.018975232195343 0.005433248616958)
(0.638989287563212 -0.018110560046519 0.005098918226592)
(0.610398705525585 -0.015895527564198 0.003273847168143)
(0.572626372855610 -0.014552831871838 0.000306300320972)
(0.148677051291406 -0.004064186925884 0.000349366849171)
(0.140697213959612 -0.003480793004000 -0.000042915230076)
(0.574065307242845 -0.014339296507006 -0.000225584023978)
(0.612759249428432 -0.015765868494655 0.002794574519167)
(0.641158915075879 -0.018272176728608 0.004714809037649)
(0.668768808309616 -0.019072829576969 0.004916879758597)
(0.667989813397311 -0.019204256004867 0.004934828974101)
(0.639822780618767 -0.018339583856043 0.004600498583735)
(0.614887878144633 -0.015794952167373 0.002549502922112)
(0.574583143688944 -0.014314078895647 -0.000147299877441)
(0.150512015803808 -0.003842226901881 -0.000083941302432)
(0.140697213959612 -0.003480793004000 -0.000042915230076)
(0.572647598909512 -0.014616379840340 -0.000325236801756)
(0.616325491789183 -0.016604880812970 0.001512874852467)
(0.646529748409212 -0.018503426728608 0.002394322926538)
(0.672622627754060 -0.019130121243635 0.002232851980819)
(0.669941474840715 -0.019536915756317 0.002291188515425)
(0.641829207241985 -0.018714451361500 0.002006109044495)
(0.621245169811300 -0.016642521611817 0.000880058477667)
(0.573165435355610 -0.014591162228980 -0.000246952655218)
(0.149975790301926 -0.003947029240970 -0.000121633371753)
(0.140404794501132 -0.003537944786480 -0.000063469818512)
(0.571229890576178 -0.014893463173673 -0.000424889579534)
(0.622682783455850 -0.017452450257415 -0.000156569591977)
(0.649065376275915 -0.018855704051301 -0.000156983226165)
(0.674827890670198 -0.019426068087006 -0.000416173037709)
(0.673795294285159 -0.019594207422983 -0.000392839262353)
(0.647200040575318 -0.018945701361500 -0.000314377066616)
(0.625746427500142 -0.017484400609728 -0.000531537608207)
(0.571747727022277 -0.014868245562314 -0.000346605432996)
(0.149975790301926 -0.003947029240970 -0.000121633371753)
)
;
    }

    bottomInlet
    {
        type            fixedValue;
        value           nonuniform List<vector>
100
(
(0.096620219450000 0.002274581450000 0.000000000000000)
(0.096620219450000 0.002274581450000 0.000000000000000)
(0.104144059350000 0.002599325600000 0.000000000000000)
(0.104897506950000 0.002700025450000 0.000000000000000)
(0.107702864100000 0.002937965300000 0.000000000000000)
(0.108939568050000 0.002932990350000 0.000000000000000)
(0.104897506950000 0.002700025450000 0.000000000000000)
(0.104144059350000 0.002599325600000 0.000000000000000)
(0.096620219450000 0.002274581450000 0.000000000000000)
(0.000000000000000 0.000000000000000 0.000000000000000)
(0.148281874471056 0.003490772459047 0.000000000000000)
(0.346661294500000 0.008160914500000 0.000000000000000)
(0.373655893500001 0.009326056000000 0.000000000000000)
(0.377183932438268 0.009757307792691 0.000000000000000)
(0.387874363745434 0.010535220324231 0.000000000000000)
(0.390617298839635 0.010524186183888 0.000000000000000)
(0.377085946132908 0.009748996962536 0.000000000000000)
(0.373655893500001 0.009326056000000 0.000000000000000)
(0.346661294500000 0.008160914500000 0.000000000000000)
(0.000000000000000 0.000000000000000 0.000000000000000)
(0.148281874471056 0.003490772459047 0.000000000000000)
(0.566090471771506 0.013829043095764 0.000000000000000)
(0.609319293819347 0.014708826788223 0.000000000000000)
(0.618709418479136 0.016825108336343 0.000000000000000)
(0.631534812864666 0.018121895030902 0.000000000000000)
(0.631498279944731 0.018117870591726 0.000000000000000)
(0.618662411656807 0.016818966590915 0.000000000000000)
(0.609252812272036 0.014690500125942 0.000000000000000)
(0.565532059271993 0.013834422919485 0.000000000000000)
(0.138693440559888 0.003465098291286 0.000000000000000)
(0.148790786392267 0.004028907982562 0.000000000000000)
(0.566546624221506 0.015243495545764 0.000000000000000)
(0.617033305479458 0.017083635664408 0.000000000000000)
(0.638803671400903 0.017843106369404 0.000000000000000)
(0.652569212807140 0.018856450934847 0.000000000000000)
(0.652491155539221 0.018854308312195 0.000000000000000)
(0.638773627779851 0.017835862105772 0.000000000000000)
(0.616674062000773 0.017057702145221 0.000000000000000)
(0.565900633012490 0.015237673206826 0.000000000000000)
(0.138592160616908 0.003752752947739 0.000000000000000)
(0.148790786392267 0.004028907982562 0.000000000000000)
(0.566292392943970 0.015422857588878 0.000953642007869)
(0.615018289229459 0.016963955039408 0.001416093750000)
(0.633726983137341 0.018206390025518 0.002731163832652)
(0.656041196489171 0.018521760294109 0.002503852293459)
(0.655987646972483 0.018521086210578 0.002507190611898)
(0.633573241767383 0.018204089117962 0.002728407537142)
(0.614061670095202 0.016871460300608 0.001370181499990)
(0.565611107184986 0.015410762265574 0.000943926092428)
(0.138592160616908 0.003752752947739 0.000000000000000)
(0.148677051291406 0.004064186925884 0.000349366849171)
(0.568659642943970 0.015118594196021 0.000931862990012)
(0.612124976186144 0.016442735704764 0.002482260012076)
(0.636238248762341 0.018225622168375 0.004496712939795)
(0.662422479971314 0.018686304936966 0.004436303186317)
(0.662368930454626 0.018685630853435 0.004439641504755)
(0.637228462749526 0.018104856975105 0.004391822715714)
(0.615105509380917 0.016339261639894 0.001878132392847)
(0.567947576467772 0.015100766594888 0.000945903733037)
(0.140697213959612 0.003480793004000 -0.000042915230076)
(0.148677051291406 0.004064186925884 0.000349366849171)
(0.572684642943970 0.014563683481735 0.000261327275727)
(0.610398705525585 0.015895527564198 0.003273847168143)
(0.637845332206069 0.018229024332234 0.005201052155164)
(0.667156320341756 0.018975232195343 0.005433248616958)
(0.667046669420727 0.018972451600778 0.005434167457009)
(0.638860310909212 0.018105694585751 0.005093950902729)
(0.613591629388749 0.015786420081957 0.002630484241389)
(0.571972576467772 0.014545855880603 0.000275368018752)
(0.140697213959612 0.003480793004000 -0.000042915230076)
(0.150512015803808 0.003842226901881 0.000037975364235)
(0.574583143688944 0.014314078895647 -0.000025383210774)
(0.614887878144633 0.015794952167373 0.002799141811001)
(0.641287891729878 0.018277042189376 0.005100304139291)
(0.668878459230644 0.019075610171534 0.005414447029657)
(0.668768808309616 0.019072829576969 0.005415365869708)
(0.639693803964767 0.018334718395274 0.004995850704316)
(0.614824971650654 0.015772201827989 0.002757234241389)
(0.573929347301105 0.014307102904412 -0.000056315512994)
(0.140697213959612 0.003480793004000 -0.000042915230076)
(0.149975790301926 0.003947029240970 0.000121633371753)
(0.573165435355610 0.014591162228980 0.000195797344782)
(0.621245169811300 0.016642521611817 0.001786641811001)
(0.646658725063212 0.018508292189376 0.003781206917069)
(0.672732278675089 0.019132901838200 0.004042224807435)
(0.672622627754060 0.019130121243635 0.004043143647486)
(0.641766765164804 0.018706745717967 0.003452816559498)
(0.621182263317321 0.016619771272433 0.001744734241389)
(0.572511638967772 0.014584186237745 0.000164865042561)
(0.140697213959612 0.003480793004000 -0.000042915230076)
(0.149975790301926 0.003947029240970 0.000121633371753)
(0.571747727022277 0.014868245562314 0.000416977900337)
(0.625746427500142 0.017484400609728 0.001066607052652)
(0.649127818353096 0.018863409694833 0.002265071511060)
(0.674964565118493 0.019424936589650 0.002525304540131)
(0.674827890670198 0.019426068087006 0.002523811926598)
(0.647137598498137 0.018937995717967 0.002133719337276)
(0.625400839011405 0.017460783590748 0.001069243203088)
(0.571093930634438 0.014861269571079 0.000386045598117)
(0.140404794501132 0.003537944786480 0.000002705929623)
)
;
    }

    outlet
    {
        type zeroGradient; 
    }

    walls
    {
        type noSlip; 
    }

    reflecting
    {
        type zeroGradient; 
    }

    frontBack
    {
        type empty; 
    }
}

// ************************************************************************* //
