/*--------------------------------*- C++ -*----------------------------------*\
| =========                 |                                                 |
| \\      /  F ield         | OpenFOAM: The Open Source CFD Toolbox           |
|  \\    /   O peration     | Version:  4.x                                   |
|   \\  /    A nd           | Web:      www.OpenFOAM.org                      |
|    \\/     M anipulation  |                                                 |
\*---------------------------------------------------------------------------*/
FoamFile
{
    version     2.0;
    format      ascii;
    class       volVectorField;
    object      U;
}
// * * * * * * * * * * * * * * * * * * * * * * * * * * * * * * * * * * * * * //

dimensions      [0 1 -1 0 0 0 0];

internalField   uniform (0 0 0);

boundaryField
{
    topInlet
    {
        type            fixedValue;
        value           nonuniform List<vector>
225
(
(0.032638541050000 -0.000768359050000 0.000000000000000)
(0.034966740250000 -0.000819239150000 0.000000000000000)
(0.035180112150000 -0.000878058400000 0.000000000000000)
(0.036382284900000 -0.000992451700000 0.000000000000000)
(0.036382284900000 -0.000992451700000 0.000000000000000)
(0.036382284900000 -0.000992451700000 0.000000000000000)
(0.036800046450000 -0.000990771150000 0.000000000000000)
(0.036800046450000 -0.000990771150000 0.000000000000000)
(0.036401700890473 -0.000992373594337 0.000000000000000)
(0.035434628550000 -0.000912075050000 0.000000000000000)
(0.035434628550000 -0.000912075050000 0.000000000000000)
(0.035134508433281 -0.000865487033224 0.000000000000000)
(0.032638541050000 -0.000768359050000 0.000000000000000)
(0.032638541050000 -0.000768359050000 0.000000000000000)
(0.032638541050000 -0.000768359050000 0.000000000000000)
(0.123344961000000 -0.002903721000000 0.000000000000000)
(0.132143505000000 -0.003096003000000 0.000000000000000)
(0.132949863000000 -0.003318288000000 0.000000000000000)
(0.137493018000000 -0.003750594000000 0.000000000000000)
(0.137493018000000 -0.003750594000000 0.000000000000000)
(0.137493018000000 -0.003750594000000 0.000000000000000)
(0.139071789000000 -0.003744243000000 0.000000000000000)
(0.139071789000000 -0.003744243000000 0.000000000000000)
(0.137512433990472 -0.003750515894337 0.000000000000000)
(0.133911711000000 -0.003446841000000 0.000000000000000)
(0.133911711000000 -0.003446841000000 0.000000000000000)
(0.132311273183281 -0.003142250883224 0.000000000000000)
(0.123344961000000 -0.002903721000000 0.000000000000000)
(0.123344961000000 -0.002903721000000 0.000000000000000)
(0.075144812383352 -0.001769018920510 0.000000000000000)
(0.284650882600000 -0.006701098600000 0.000000000000000)
(0.304955833000000 -0.007144839800000 0.000000000000000)
(0.306816715800000 -0.007657820800000 0.000000000000000)
(0.315009826427049 -0.008461131414414 0.000000000000000)
(0.317301238800000 -0.008655480400000 0.000000000000000)
(0.318528909174654 -0.008650541789809 0.000000000000000)
(0.320944667400000 -0.008640823800000 0.000000000000000)
(0.320522435535430 -0.008642522332955 0.000000000000000)
(0.317320654790473 -0.008655402294337 0.000000000000000)
(0.309036432600000 -0.007954490600000 0.000000000000000)
(0.308695711152594 -0.007908952464839 0.000000000000000)
(0.305123601183281 -0.007191087683224 0.000000000000000)
(0.284650882600000 -0.006701098600000 0.000000000000000)
(0.256439146426775 -0.006036953019114 0.000000000000000)
(0.075144812383352 -0.001769018920510 0.000000000000000)
(0.386035317921953 -0.009087836668023 0.000000000000000)
(0.604024476195925 -0.014335967600397 0.000000000000000)
(0.609364812472646 -0.015430676325738 0.000000000000000)
(0.617618176427049 -0.016275040814414 0.000000000000000)
(0.628798230304245 -0.017171096006017 0.000000000000000)
(0.632596631574654 -0.017155815989809 0.000000000000000)
(0.634170624880388 -0.017118919171573 0.000000000000000)
(0.630968844135430 -0.017131799132955 0.000000000000000)
(0.627767063390473 -0.017144679094337 0.000000000000000)
(0.616919261550884 -0.016226334208945 0.000000000000000)
(0.609108346152594 -0.015396399064839 0.000000000000000)
(0.603715118983281 -0.014176515283224 0.000000000000000)
(0.564281140894207 -0.013293558858650 0.000000000000000)
(0.256439146426775 -0.006036953019114 0.000000000000000)
(0.075144812383352 -0.001769018920510 0.000000000000000)
(0.387599608784826 -0.009808883019323 0.000000000000000)
(0.606721358410230 -0.015541181821452 0.000000000000000)
(0.623368045106230 -0.016064904269746 0.000000000000000)
(0.627865573817717 -0.017439556901101 0.000000000000000)
(0.635373706213598 -0.018173971889203 0.000000000000000)
(0.643093146702985 -0.018570027443838 0.000000000000000)
(0.645151510359625 -0.018796775246980 0.000000000000000)
(0.641107646622235 -0.018351306237798 0.000000000000000)
(0.632741453683299 -0.018101718221516 0.000000000000000)
(0.628684383905460 -0.017344216374455 0.000000000000000)
(0.623065038791396 -0.015958860818650 0.000000000000000)
(0.604802572425037 -0.015433653975976 0.000000000000000)
(0.566384563944206 -0.014632022008650 0.000000000000000)
(0.257333698734973 -0.006926598429937 0.000000000000000)
(0.075402713701200 -0.002041729884650 0.000000000000000)
(0.387198213334826 -0.010539062469323 0.000497625000000)
(0.608553478860230 -0.016628818121452 0.000699750000000)
(0.624427707896067 -0.017625339864052 0.001422750000000)
(0.634810629717717 -0.018030996301101 0.001422750000000)
(0.648419272963598 -0.018562691889203 0.001595250000000)
(0.658425839069154 -0.018829452679726 0.001562055776597)
(0.660776987242125 -0.018827526109658 0.001283250000000)
(0.652136753837712 -0.018590357165587 0.001283250000000)
(0.645770569764717 -0.018489452474185 0.001593009175465)
(0.634673029198161 -0.017997817396405 0.001422750000000)
(0.623455798644940 -0.017629427442012 0.001422750000000)
(0.606834720665532 -0.016543070067287 0.000706493533711)
(0.566186197553239 -0.015392935723797 0.000497625000000)
(0.257157260325708 -0.007017856309036 0.000497625000000)
(0.075345076158877 -0.002059608196389 0.000177048654312)
(0.387708116687976 -0.010491871548273 0.000802251902312)
(0.605059126378778 -0.016198370922145 0.002025657365181)
(0.620889057495136 -0.017418478080233 0.003011464885544)
(0.634259807149417 -0.018140552529524 0.004091742241468)
(0.652387245230913 -0.018407469679428 0.004268898458341)
(0.659419214069154 -0.018495988394011 0.003830520062311)
(0.663435053161184 -0.018571468085864 0.003685501588376)
(0.657507606105808 -0.018496853137167 0.004055023239063)
(0.650619102467421 -0.018386152170299 0.004383097520307)
(0.633850882198843 -0.018099442888047 0.004052761197734)
(0.621143711597636 -0.017441022051151 0.002878880760256)
(0.603208817857293 -0.016056339736810 0.001948540726072)
(0.566369168437226 -0.015358939407997 0.001267270641884)
(0.257122566479697 -0.007028617826086 0.000604196142723)
(0.075345076158877 -0.002059608196389 0.000177048654312)
(0.391572116687976 -0.009959157262559 0.000158537616598)
(0.606911569326290 -0.015579961352218 0.002137234760712)
(0.619058200352279 -0.016897763794518 0.003803464885544)
(0.635215612494785 -0.018204605869722 0.004820315598522)
(0.652786245230913 -0.018529183965143 0.005047184172627)
(0.662123802568697 -0.018704273553868 0.004708238609184)
(0.669826338875470 -0.018918182371578 0.004722215874090)
(0.663155467455381 -0.018815653119386 0.005059675953334)
(0.651018102467421 -0.018507866456013 0.005161383234593)
(0.636021167913128 -0.018037728602332 0.004672904054877)
(0.622640145902955 -0.017302005402647 0.003527966892356)
(0.606419246428721 -0.015401911165381 0.001809255011786)
(0.570233168437226 -0.014826225122283 0.000623556356170)
(0.257122566479697 -0.007028617826086 0.000604196142723)
(0.075345076158877 -0.002059608196389 0.000177048654312)
(0.393243763373163 -0.009728693993960 -0.000119946558330)
(0.610121997897719 -0.014925532780789 0.001997949046426)
(0.621099800769622 -0.016821287088814 0.004429135035326)
(0.637385898209071 -0.018142891584008 0.005440458455664)
(0.654116044044152 -0.018685848141928 0.005865612333228)
(0.668515088282983 -0.019050987839582 0.005744952894898)
(0.675691832443342 -0.019245154068473 0.005736254386361)
(0.663554467455381 -0.018937367405100 0.005837961667620)
(0.651417102467421 -0.018629580741727 0.005939668948879)
(0.637090396263547 -0.018090036226063 0.005391350847967)
(0.620809288760098 -0.016781291116933 0.004319966892356)
(0.609629675000150 -0.014747482593953 0.001669969297500)
(0.574097168437226 -0.014293510836569 -0.000020157929544)
(0.260583639895515 -0.006551453423262 0.000027606494258)
(0.075903993014395 -0.001982552556259 0.000083937172835)
(0.393243763373163 -0.009728693993960 -0.000119946558330)
(0.611394013770735 -0.015481183574440 0.001243345871823)
(0.626547348388669 -0.017489056930084 0.003196936622627)
(0.642044279161452 -0.018317605869722 0.003687426709633)
(0.657322909154681 -0.018925750725177 0.003911164077184)
(0.672663358124253 -0.019154606887201 0.003770516386961)
(0.678107047359477 -0.019417580781042 0.003734338240712)
(0.664833189677604 -0.019274319786053 0.003860175953334)
(0.652695824689643 -0.018966533122680 0.003961883234593)
(0.638369118485769 -0.018426988607015 0.003413565133681)
(0.625589979236289 -0.017372560958202 0.003116411336800)
(0.611615047385239 -0.015305320479618 0.000816263515989)
(0.573607001770559 -0.014426391788950 -0.000207165866052)
(0.260093473228849 -0.006684334375642 -0.000159401442250)
(0.076003238187301 -0.002000236190986 -0.000061640149429)
(0.392187618235086 -0.009935111779947 -0.000194184533993)
(0.612177928106290 -0.016188272532218 0.000465341180712)
(0.631788360432060 -0.018104758730123 0.001664740170994)
(0.646614798174785 -0.018514397029722 0.001712719018522)
(0.658612393572458 -0.019262600458511 0.001669340457184)
(0.675942915308697 -0.019203361453868 0.001486438809184)
(0.681386604543921 -0.019466335347708 0.001450260662935)
(0.666257979559111 -0.019591581868735 0.001615479477905)
(0.653985309107421 -0.019303382856013 0.001720059614593)
(0.642272763192772 -0.018652246843852 0.001384565802357)
(0.630996888550915 -0.018091912056532 0.001693703580545)
(0.612398961720794 -0.016012409437396 0.000038258824878)
(0.572400547857226 -0.014662186602283 -0.000291969263830)
(0.259368609864816 -0.006826004952301 -0.000210353140873)
(0.076003238187301 -0.002000236190986 -0.000061640149429)
(0.391365896338420 -0.010095712826614 -0.000251944559548)
(0.612711856147401 -0.016669874417773 -0.000064561771510)
(0.634901364178727 -0.018238794190123 0.000319756718772)
(0.648175544789709 -0.018714694186448 0.000241363047649)
(0.659490667968014 -0.019492030525177 0.000142422987184)
(0.677438364246823 -0.019343445539984 -0.000053582737964)
(0.683620327622810 -0.019499542331042 -0.000105436192621)
(0.668491702638000 -0.019624788852068 0.000059782622350)
(0.654863583502976 -0.019532812922680 0.000193142144593)
(0.645385766939439 -0.018786282303852 0.000039582350135)
(0.634109892297582 -0.018225947516532 0.000348720128323)
(0.612932889761905 -0.016494011322952 -0.000491644127345)
(0.571578825960559 -0.014822787648950 -0.000349729289386)
(0.259368609864816 -0.006826004952301 -0.000210353140873)
(0.076003238187301 -0.002000236190986 -0.000061640149429)
(0.390903809618420 -0.010186025146614 -0.000284425306215)
(0.614179445587971 -0.016944277174048 -0.000524719218553)
(0.636651929298727 -0.018314167630123 -0.000436580667894)
(0.648669433216376 -0.018843711786448 -0.000617283032351)
(0.659984556394681 -0.019621048125177 -0.000716223092816)
(0.677932252673490 -0.019472463139984 -0.000912228817964)
(0.684876438449477 -0.019518215931042 -0.000980266059288)
(0.669747813464666 -0.019643462452068 -0.000815047244317)
(0.655357471929643 -0.019661830522680 -0.000665503935407)
(0.647136332059439 -0.018861655743852 -0.000716755036532)
(0.635860457417582 -0.018301320956532 -0.000407617258344)
(0.613233138615239 -0.016764835109618 -0.000789629514011)
(0.571116739240559 -0.014913099968950 -0.000382210036052)
(0.259368609864816 -0.006826004952301 -0.000210353140873)
(0.076003238187301 -0.002000236190986 -0.000061640149429)
(0.390643959332420 -0.010236811462614 -0.000302690560215)
(0.615344666965971 -0.017099627296048 -0.000830709954553)
(0.637636343754727 -0.018356553202123 -0.000861900153894)
(0.648947166904376 -0.018916263666448 -0.001100134886351)
(0.660262290082681 -0.019693600005177 -0.001199074946816)
(0.678209986361490 -0.019545015019984 -0.001395080671964)
(0.685582801007477 -0.019528716861042 -0.001472218719288)
(0.670454176022666 -0.019653963382068 -0.001306999904317)
(0.655635205617643 -0.019734382402680 -0.001148355789407)
(0.648120746515439 -0.018904041315852 -0.001142074522532)
(0.636844871873582 -0.018343706528532 -0.000832936744344)
(0.613401980841239 -0.016917130415618 -0.000957198900011)
(0.570856888954559 -0.014963886284950 -0.000400475290052)
(0.259368609864816 -0.006826004952301 -0.000210353140873)
(0.076003238187301 -0.002000236190986 -0.000061640149429)
(0.390497834206420 -0.010265370818614 -0.000312961907548)
(0.615999921663971 -0.017186987431381 -0.001002781863886)
(0.638189922850727 -0.018380388454123 -0.001101075813228)
(0.649103348645709 -0.018957062746448 -0.001371663500351)
(0.660418471824014 -0.019734399085177 -0.001470603560816)
(0.678366168102823 -0.019585814099984 -0.001666609285964)
(0.685980019418810 -0.019534621991042 -0.001748865112621)
(0.670851394434000 -0.019659868512068 -0.001583646297650)
(0.655791387358976 -0.019775181482680 -0.001419884403407)
(0.648674325611439 -0.018927876567852 -0.001381250181865)
(0.637398450969582 -0.018367541780532 -0.001072112403677)
(0.613496928173905 -0.017002772694952 -0.001051430459345)
(0.570810671767750 -0.015016102583202 -0.000445542365613)
(0.259368609864816 -0.006826004952301 -0.000210353140873)
(0.076003238187301 -0.002000236190986 -0.000061640149429)
)
;
    }

    bottomInlet
    {
        type            fixedValue;
        value           nonuniform List<vector>
225
(
(0.032638541050000 0.000768359050000 0.000000000000000)
(0.032638541050000 0.000768359050000 0.000000000000000)
(0.032638541050000 0.000768359050000 0.000000000000000)
(0.035134508433281 0.000865487033224 0.000000000000000)
(0.035434628550000 0.000912075050000 0.000000000000000)
(0.035434628550000 0.000912075050000 0.000000000000000)
(0.036382284900000 0.000992451700000 0.000000000000000)
(0.036382284900000 0.000992451700000 0.000000000000000)
(0.036382284900000 0.000992451700000 0.000000000000000)
(0.036800046450000 0.000990771150000 0.000000000000000)
(0.036800046450000 0.000990771150000 0.000000000000000)
(0.035434628550000 0.000912075050000 0.000000000000000)
(0.035434628550000 0.000912075050000 0.000000000000000)
(0.035180112150000 0.000878058400000 0.000000000000000)
(0.000000000000000 0.000000000000000 0.000000000000000)
(0.075144812383352 0.001769018920510 0.000000000000000)
(0.123344961000000 0.002903721000000 0.000000000000000)
(0.123344961000000 0.002903721000000 0.000000000000000)
(0.132311273183281 0.003142250883224 0.000000000000000)
(0.133911711000000 0.003446841000000 0.000000000000000)
(0.133911711000000 0.003446841000000 0.000000000000000)
(0.137493018000000 0.003750594000000 0.000000000000000)
(0.137493018000000 0.003750594000000 0.000000000000000)
(0.138285766480388 0.003747404971573 0.000000000000000)
(0.139071789000000 0.003744243000000 0.000000000000000)
(0.138487858504244 0.003746592006017 0.000000000000000)
(0.133911711000000 0.003446841000000 0.000000000000000)
(0.133911711000000 0.003446841000000 0.000000000000000)
(0.132831575395924 0.003285680200397 0.000000000000000)
(0.000000000000000 0.000000000000000 0.000000000000000)
(0.075144812383352 0.001769018920510 0.000000000000000)
(0.256439146426775 0.006036953019114 0.000000000000000)
(0.284650882600000 0.006701098600000 0.000000000000000)
(0.305123601183281 0.007191087683224 0.000000000000000)
(0.308695711152594 0.007908952464839 0.000000000000000)
(0.309036432600000 0.007954490600000 0.000000000000000)
(0.317301238800000 0.008655480400000 0.000000000000000)
(0.317301238800000 0.008655480400000 0.000000000000000)
(0.320158644880388 0.008643985771573 0.000000000000000)
(0.320944667400000 0.008640823800000 0.000000000000000)
(0.318296079304245 0.008651478406017 0.000000000000000)
(0.309036432600000 0.007954490600000 0.000000000000000)
(0.308952177472646 0.007943229725738 0.000000000000000)
(0.305643903395925 0.007334517000397 0.000000000000000)
(0.107467200521953 0.002529935268023 0.000000000000000)
(0.075144812383352 0.001769018920510 0.000000000000000)
(0.256439146426775 0.006036953019114 0.000000000000000)
(0.564281140894207 0.013293558858650 0.000000000000000)
(0.603715118983281 0.014176515283224 0.000000000000000)
(0.609108346152594 0.015396399064839 0.000000000000000)
(0.616919261550884 0.016226334208945 0.000000000000000)
(0.627772169884846 0.017147458578616 0.000000000000000)
(0.631024586535430 0.017162139932955 0.000000000000000)
(0.634226367280388 0.017149259971573 0.000000000000000)
(0.632596631574654 0.017155815989809 0.000000000000000)
(0.628798230304245 0.017171096006017 0.000000000000000)
(0.617368041227049 0.016264398014414 0.000000000000000)
(0.609364812472646 0.015430676325738 0.000000000000000)
(0.604235421195925 0.014319944600397 0.000000000000000)
(0.386104290321953 0.009113444068023 0.000000000000000)
(0.075402713701200 0.002041729884650 0.000000000000000)
(0.257333698734973 0.006926598429937 0.000000000000000)
(0.566384563944206 0.014632022008650 0.000000000000000)
(0.604896343995160 0.015443678147709 0.000000000000000)
(0.623065038791396 0.015958860818650 0.000000000000000)
(0.627727973298162 0.017406377996406 0.000000000000000)
(0.632713580734846 0.018102981378616 0.000000000000000)
(0.636757444472235 0.018548450387798 0.000000000000000)
(0.644023122642125 0.018847911959658 0.000000000000000)
(0.639625164753463 0.018727190796271 0.000000000000000)
(0.633945546360854 0.018238693791893 0.000000000000000)
(0.627865573817717 0.017439556901101 0.000000000000000)
(0.623368045106230 0.016064904269746 0.000000000000000)
(0.606336771534941 0.015500069521859 0.000000000000000)
(0.387469682662486 0.010177898374056 0.000000000000000)
(0.075402713701200 0.002041729884650 0.000000000000000)
(0.257319260325708 0.006967606309036 0.000000000000000)
(0.566037431515990 0.015371845754656 0.000512562573412)
(0.606834720665532 0.016543070067287 0.000706493533711)
(0.627050173644940 0.017256677442012 0.000755250000000)
(0.634673029198161 0.017997817396405 0.001422750000000)
(0.645770569764717 0.018489452474185 0.001593009175465)
(0.652136753837712 0.018590357165587 0.001283250000000)
(0.660776987242125 0.018827526109658 0.001283250000000)
(0.656379029353463 0.018706804946271 0.001283250000000)
(0.647576370230913 0.018512183965143 0.001480434172627)
(0.634810629717717 0.018030996301101 0.001422750000000)
(0.624427707896067 0.017625339864052 0.001422750000000)
(0.608553478860230 0.016628818121452 0.000699750000000)
(0.387334116687976 0.010496907262559 0.000080162616598)
(0.075345076158877 0.002059608196389 0.000177048654312)
(0.257122566479697 0.007028617826086 0.000604196142723)
(0.566411431515990 0.015366810040370 0.001234651859127)
(0.603208817857293 0.016056339736810 0.001948540726072)
(0.620476854454779 0.017364522051151 0.002907523617399)
(0.633555667913128 0.018130014316618 0.004079118340591)
(0.650619102467421 0.018386152170299 0.004383097520307)
(0.657507606105808 0.018496853137167 0.004055023239063)
(0.663435053161184 0.018571468085864 0.003685501588376)
(0.660417928354868 0.018533488394011 0.003873591490883)
(0.653385959516627 0.018444969679428 0.004311969886913)
(0.634555021435131 0.018109981100952 0.004065385098611)
(0.621555914637994 0.017494978080233 0.002982822028401)
(0.605899340664493 0.016176085207859 0.001870443079467)
(0.387708116687976 0.010491871548273 0.000802251902312)
(0.075345076158877 0.002059608196389 0.000177048654312)
(0.257122566479697 0.007028617826086 0.000604196142723)
(0.570275431515990 0.014834095754656 0.000590937573412)
(0.606419246428721 0.015401911165381 0.001809255011786)
(0.618645997311922 0.016843807765436 0.003699523617399)
(0.634624896263547 0.018182321940348 0.004797565133681)
(0.651018102467421 0.018507866456013 0.005161383234593)
(0.663155467455381 0.018815653119386 0.005059675953334)
(0.669826338875470 0.018918182371578 0.004722215874090)
(0.666809214069154 0.018880202679726 0.004910305776597)
(0.654715758329866 0.018601633856213 0.005130398047514)
(0.636725307149417 0.018048266815238 0.004685527955754)
(0.623597515055336 0.017418501374529 0.003608492178183)
(0.609109769235921 0.015521656636430 0.001731157365181)
(0.391572116687976 0.009959157262559 0.000158537616598)
(0.075903993014395 0.001982552556259 0.000083937172835)
(0.260583639895515 0.006551453423262 0.000027606494258)
(0.574139431515990 0.014301381468942 -0.000052776712302)
(0.609629675000150 0.014747482593953 0.001669969297500)
(0.620142431617241 0.016704791116933 0.004348609749499)
(0.636795181977833 0.018120607654634 0.005417707990824)
(0.651417102467421 0.018629580741727 0.005939668948879)
(0.663554467455381 0.018937367405100 0.005837961667620)
(0.675691832443342 0.019245154068473 0.005736254386361)
(0.669513802568697 0.019088487839582 0.005788024323469)
(0.655114758329866 0.018723348141928 0.005908683761800)
(0.637681112494785 0.018112320155436 0.005414101312807)
(0.621766657912479 0.016897787088814 0.004400492178183)
(0.610962212183433 0.014903247066503 0.001842734760712)
(0.393243763373163 0.009728693993960 -0.000119946558330)
(0.076003238187301 0.002000236190986 0.000061640149429)
(0.260093473228849 0.006684334375642 0.000097265224417)
(0.573607001770559 0.014426391788950 0.000049500800614)
(0.611615047385239 0.015305320479618 0.001409625372900)
(0.624800812569622 0.016879505402647 0.003396689114578)
(0.641453562930214 0.018295321940348 0.004465787355903)
(0.652713964056522 0.018963907156428 0.004806279684902)
(0.666704023010937 0.019003486452719 0.004869898175556)
(0.678841387998898 0.019311273116092 0.004768190894298)
(0.672663358124253 0.019154606887201 0.004819960831406)
(0.657322909154681 0.018925750725177 0.004856613700594)
(0.638959834717007 0.018449272536389 0.004279093376299)
(0.625758181722003 0.016996001374529 0.003477214400405)
(0.614319714509082 0.015490153530715 0.001388994160775)
(0.393243763373163 0.009728693993960 -0.000119946558330)
(0.076003238187301 0.002000236190986 0.000061640149429)
(0.259368609864816 0.006826004952301 0.000210353140873)
(0.572400547857226 0.014662186602283 0.000237722976170)
(0.612398961720794 0.016012409437396 0.001276953855122)
(0.629784520210915 0.017334448556532 0.002402573679455)
(0.646024081943547 0.018492113100348 0.003343250393681)
(0.654003448474300 0.019300756889761 0.003460949127124)
(0.669132073459111 0.019175510368735 0.003626167942095)
(0.682120945183342 0.019360027682759 0.003600445152075)
(0.675942915308697 0.019203361453868 0.003652215089184)
(0.658612393572459 0.019262600458511 0.003511283142816)
(0.642558749434154 0.018687538879781 0.003090581122351)
(0.630575992092060 0.017347295230123 0.002431537089006)
(0.615103628844638 0.016197242488492 0.001256322642997)
(0.392187618235086 0.009935111779947 0.000044825533993)
(0.076003238187301 0.002000236190986 0.000061640149429)
(0.259368609864816 0.006826004952301 0.000210353140873)
(0.571578825960559 0.014822787648950 0.000365922057281)
(0.612932889761905 0.016494011322952 0.001186590609567)
(0.633469287834249 0.017825710655421 0.001815715719455)
(0.647889558548328 0.018679402150519 0.002493973352087)
(0.654881722869856 0.019530186956428 0.002544637641568)
(0.670010347854666 0.019404940435401 0.002709856456539)
(0.684354668262231 0.019393234666092 0.002805087587631)
(0.677438364246823 0.019343445539984 0.002790977382408)
(0.659490667968014 0.019492030525177 0.002594971657260)
(0.645671753180820 0.018821574339781 0.002326015487907)
(0.634260759715393 0.017838557329012 0.001844679129006)
(0.615637556885749 0.016678844374048 0.001165959397441)
(0.391365896338420 0.010095712826614 0.000173024615104)
(0.076003238187301 0.002000236190986 0.000061640149429)
(0.259368609864816 0.006826004952301 0.000210353140873)
(0.571116739240559 0.014913099968950 0.000438013470614)
(0.613233138615239 0.016764835109618 0.001135775782900)
(0.635541378394249 0.018101966762088 0.001485702279455)
(0.648383446974995 0.018808419750519 0.001978695165421)
(0.655375611296522 0.019659204556428 0.002029359454902)
(0.670504236281333 0.019533958035401 0.002194578269872)
(0.685610779088898 0.019411908266092 0.002357826574298)
(0.677932252673490 0.019472463139984 0.002275699195742)
(0.659984556394681 0.019621048125177 0.002079693470594)
(0.647422318300820 0.018896947779781 0.001896069994573)
(0.636332850275393 0.018114813435679 0.001514665689006)
(0.615937805739082 0.016949668160715 0.001115144570775)
(0.390903809618420 0.010186025146614 0.000245116028437)
(0.076003238187301 0.002000236190986 0.000061640149429)
(0.259368609864816 0.006826004952301 0.000210353140873)
(0.570856888954559 0.014963886284950 0.000478553424614)
(0.613401980841239 0.016917130415618 0.001107200524900)
(0.636706599772249 0.018257316884088 0.001300122207455)
(0.648661180662994 0.018880971630519 0.001688933139421)
(0.655653344984522 0.019731756436428 0.001739597428902)
(0.670781969969333 0.019606509915401 0.001904816243872)
(0.685910594954144 0.019481263394375 0.002070035058843)
(0.678209986361490 0.019545015019984 0.001985937169742)
(0.660262290082681 0.019693600005177 0.001789931444594)
(0.648406732756820 0.018939333351781 0.001654294036573)
(0.637498071653393 0.018270163557679 0.001329085617006)
(0.616106647965082 0.017101963466715 0.001086569312775)
(0.390643959332420 0.010236811462614 0.000285655982437)
(0.076003238187301 0.002000236190986 0.000061640149429)
(0.259368609864816 0.006826004952301 0.000210353140873)
(0.570810671767750 0.015016102583202 0.000485243319835)
(0.613496928173905 0.017002772694952 0.001091131413567)
(0.637361854470249 0.018344677019421 0.001195762455455)
(0.648817362404328 0.018921770710519 0.001525987340087)
(0.655809526725855 0.019772555516428 0.001576651629568)
(0.670938151710666 0.019647308995401 0.001741870444539)
(0.686066776695477 0.019522062474375 0.001907089259510)
(0.678366168102823 0.019585814099984 0.001822991370408)
(0.660418471824014 0.019734399085177 0.001626985645260)
(0.648960311852820 0.018963168603781 0.001518332891907)
(0.638153326351393 0.018357523693012 0.001224725865006)
(0.616201595297749 0.017187605746048 0.001070500201441)
(0.390497834206420 0.010265370818614 0.000308453363104)
)
;
    }

    outlet
    {
        type zeroGradient; 
    }

    walls
    {
        type noSlip; 
    }

    reflecting
    {
        type zeroGradient; 
    }

    frontBack
    {
        type empty; 
    }
}

// ************************************************************************* //
