/*--------------------------------*- C++ -*----------------------------------*\
| =========                 |                                                 |
| \\      /  F ield         | OpenFOAM: The Open Source CFD Toolbox           |
|  \\    /   O peration     | Version:  4.x                                   |
|   \\  /    A nd           | Web:      www.OpenFOAM.org                      |
|    \\/     M anipulation  |                                                 |
\*---------------------------------------------------------------------------*/
FoamFile
{
    version     2.0;
    format      ascii;
    class       volVectorField;
    object      U;
}
// * * * * * * * * * * * * * * * * * * * * * * * * * * * * * * * * * * * * * //

dimensions      [0 1 -1 0 0 0 0];

internalField   uniform (0 0 0);

boundaryField
{
    topInlet
    {
        type            fixedValue;
        value           nonuniform List<vector>
10
(
(0.230209065162649 -0.004625526112543 -0.000482857645827)
(0.936443489102238 -0.018766904325316 0.000837958081878)
(1.029915618399508 -0.021120347613116 0.011961660042266)
(1.082074987752197 -0.025211306223734 0.015361687387122)
(1.097180211624214 -0.026064473990696 0.013634259639084)
(1.094570527449032 -0.025127975122419 0.015556202258537)
(1.068283198766556 -0.024032609077956 0.016410155136173)
(1.030987141328666 -0.021135460338564 0.011952541850687)
(0.937251593908289 -0.018790122613444 0.000866332249538)
(0.245059124448313 -0.004904036397516 0.000871969106596)
)
;
    }

    bottomInlet
    {
        type            fixedValue;
        value           nonuniform List<vector>
10
(
(0.245059124448313 0.004904036397516 0.000871969106596)
(0.937930889403934 0.018786912982347 0.000986616995870)
(1.030987141328665 0.021135460338564 0.011952541850687)
(1.082171541982281 0.025220851394922 0.015342824738723)
(1.094570527449032 0.025127975122419 0.015556202258537)
(1.094415937625943 0.025117667261759 0.015566782962531)
(1.068377979380399 0.024039433905315 0.016414313547224)
(1.041966653373546 0.020719235861335 0.008880886022980)
(0.936084656583792 0.018768599787773 0.000774418607917)
(0.230209065162649 0.004625526112543 -0.000482857645827)
)
;
    }

    outlet
    {
        type zeroGradient; 
    }

    walls
    {
        type noSlip; 
    }

    reflecting
    {
        type zeroGradient; 
    }

    frontBack
    {
        type empty; 
    }
}

// ************************************************************************* //
