/*--------------------------------*- C++ -*----------------------------------*\
| =========                 |                                                 |
| \\      /  F ield         | OpenFOAM: The Open Source CFD Toolbox           |
|  \\    /   O peration     | Version:  4.x                                   |
|   \\  /    A nd           | Web:      www.OpenFOAM.org                      |
|    \\/     M anipulation  |                                                 |
\*---------------------------------------------------------------------------*/
FoamFile
{
    version     2.0;
    format      ascii;
    class       volVectorField;
    object      U;
}
// * * * * * * * * * * * * * * * * * * * * * * * * * * * * * * * * * * * * * //

dimensions      [0 1 -1 0 0 0 0];

internalField   uniform (0 0 0);

boundaryField
{
    topInlet
    {
        type            fixedValue;
        value           nonuniform List<vector>
20
(
(0.075508739846233 -0.001868056132746 -0.000023031550178)
(0.256552147717333 -0.006346997895722 -0.000078253109184)
(0.504635457562056 -0.013049819525403 0.000424218048209)
(0.587930903599066 -0.015147545199497 0.000842724832382)
(0.607449872266685 -0.015774640371993 0.002495845875711)
(0.617452934343520 -0.016687639727074 0.003398680426614)
(0.628443656768281 -0.017949143474836 0.004559504853004)
(0.646009437933268 -0.018432141404879 0.005073523557927)
(0.655928150906367 -0.018568734403737 0.004851315333876)
(0.665537417500288 -0.018790838071857 0.004679633595303)
(0.668529848805287 -0.018901862100951 0.004803040071482)
(0.661258947262194 -0.018767560009979 0.005075568192951)
(0.646933786537813 -0.018354701540939 0.005007533962362)
(0.628806899868978 -0.017929759199848 0.004543565708151)
(0.620017025883122 -0.016982815134909 0.003307333619568)
(0.607512500135954 -0.015797289945839 0.002537567828803)
(0.587848555896827 -0.015017620399703 0.001440924583368)
(0.513952005194220 -0.013447993916587 0.000592860191954)
(0.262711377517512 -0.007181391724638 0.000617328938174)
(0.084490403311664 -0.002309601848566 0.000198538683232)
)
;
    }

    bottomInlet
    {
        type            fixedValue;
        value           nonuniform List<vector>
20
(
(0.084490403311664 0.002309601848566 0.000198538683232)
(0.262711377517512 0.007181391724638 0.000617328938174)
(0.513952005194220 0.013447993916587 0.000592860191954)
(0.588591464079321 0.015155971825164 0.000867545612355)
(0.607512500135954 0.015797289945839 0.002537567828803)
(0.617516591748030 0.016695972273010 0.003414732300821)
(0.628572705147703 0.017954011641344 0.004564474939254)
(0.646163692287443 0.018434449989803 0.005076289050285)
(0.661258947262194 0.018767560009979 0.005075568192951)
(0.668529848805287 0.018901862100951 0.004803040071482)
(0.668476299288600 0.018901188017420 0.004806378389921)
(0.661149296341166 0.018764779415414 0.005076487033002)
(0.646804379531281 0.018349819845733 0.005002550064178)
(0.628653073001651 0.017927457012730 0.004540807879833)
(0.619869177300186 0.016964824410727 0.003294897926011)
(0.611465539882360 0.015668129422737 0.001754024424647)
(0.587176255418391 0.015007007439948 0.001425164772483)
(0.504635457562056 0.013049819525403 0.000424218048209)
(0.256552147717333 0.006346997895722 -0.000078253109184)
(0.075508739846233 0.001868056132746 -0.000023031550178)
)
;
    }

    outlet
    {
        type zeroGradient; 
    }

    walls
    {
        type noSlip; 
    }

    reflecting
    {
        type zeroGradient; 
    }

    frontBack
    {
        type empty; 
    }
}

// ************************************************************************* //
