/*--------------------------------*- C++ -*----------------------------------*\
| =========                 |                                                 |
| \\      /  F ield         | OpenFOAM: The Open Source CFD Toolbox           |
|  \\    /   O peration     | Version:  4.x                                   |
|   \\  /    A nd           | Web:      www.OpenFOAM.org                      |
|    \\/     M anipulation  |                                                 |
\*---------------------------------------------------------------------------*/
FoamFile
{
    version     2.0;
    format      ascii;
    class       volVectorField;
    object      U;
}
// * * * * * * * * * * * * * * * * * * * * * * * * * * * * * * * * * * * * * //

dimensions      [0 1 -1 0 0 0 0];

internalField   uniform (0 0 0);

boundaryField
{
    topInlet
    {
        type            fixedValue;
        value           nonuniform List<vector>
10
(
(0.140697213959612 -0.003480793004000 -0.000042915230076)
(0.569990857184986 -0.014829043515574 0.000586879217428)
(0.610896107595202 -0.016154413425608 0.002892087749990)
(0.636585998409212 -0.018256301728608 0.004873093759872)
(0.659847856920727 -0.018646558743635 0.004727310314152)
(0.665751274614171 -0.018866885294109 0.004976258543459)
(0.638512561262341 -0.018075015025518 0.004717570082652)
(0.611171404757573 -0.016171530347621 0.002894760012076)
(0.570613872855610 -0.014830287228980 0.000641568178115)
(0.148677051291406 -0.004064186925884 0.000349366849171)
)
;
    }

    bottomInlet
    {
        type            fixedValue;
        value           nonuniform List<vector>
10
(
(0.148677051291406 0.004064186925884 0.000349366849171)
(0.570672142943970 0.014841138838878 0.000596595132869)
(0.611171404757573 0.016171530347621 0.002894760012076)
(0.636714975063212 0.018261167189376 0.004878061083735)
(0.665751274614171 0.018866885294109 0.004976258543459)
(0.665697725097483 0.018866211210578 0.004979596861898)
(0.638358819892384 0.018072714117962 0.004714813787142)
(0.614545200817320 0.016057625439100 0.002217984241389)
(0.569960076467772 0.014823311237745 0.000610635875895)
(0.140697213959612 0.003480793004000 -0.000042915230076)
)
;
    }

    outlet
    {
        type zeroGradient; 
    }

    walls
    {
        type noSlip; 
    }

    reflecting
    {
        type zeroGradient; 
    }

    frontBack
    {
        type empty; 
    }
}

// ************************************************************************* //
