/*--------------------------------*- C++ -*----------------------------------*\
| =========                 |                                                 |
| \\      /  F ield         | OpenFOAM: The Open Source CFD Toolbox           |
|  \\    /   O peration     | Version:  4.x                                   |
|   \\  /    A nd           | Web:      www.OpenFOAM.org                      |
|    \\/     M anipulation  |                                                 |
\*---------------------------------------------------------------------------*/
FoamFile
{
    version     2.0;
    format      ascii;
    class       volVectorField;
    object      U;
}
// * * * * * * * * * * * * * * * * * * * * * * * * * * * * * * * * * * * * * //

dimensions      [0 1 -1 0 0 0 0];

internalField   uniform (0 0 0);

boundaryField
{
    topInlet
    {
        type            fixedValue;
        value           nonuniform List<vector>
40
(
(0.071448081771952 -0.001767597070205 -0.000021792975010)
(0.221789932197256 -0.005486994536874 -0.000067649996051)
(0.385125225571629 -0.009782927169481 0.000143388472754)
(0.563148615548867 -0.014649315948130 0.000561714436948)
(0.581889555281538 -0.015040289088343 0.000756568284079)
(0.595896565489537 -0.015233917075943 0.001213163313483)
(0.606714198547097 -0.015508581564105 0.002005748658959)
(0.609321021294717 -0.016056480598635 0.002876798658859)
(0.615932700118859 -0.016488646041908 0.003015337613199)
(0.617869978197478 -0.016742229402815 0.003503842356072)
(0.621104877256101 -0.017147706930523 0.003991964088818)
(0.626517797274535 -0.017806369659207 0.004447250255662)
(0.631818409602976 -0.018076451224047 0.004689477912235)
(0.637518070269254 -0.018291462813409 0.004908990975759)
(0.644855137946730 -0.018414866044569 0.005052829115890)
(0.651667166470586 -0.018515096955422 0.005116948411245)
(0.654538863810809 -0.018551246000316 0.004937924569864)
(0.657317438001925 -0.018586222807157 0.004764706097887)
(0.662692637210508 -0.018718698407746 0.004703471954728)
(0.668382197790069 -0.018862977735967 0.004655795235878)
(0.669918839424726 -0.018919346772318 0.004716449318045)
(0.667140561709729 -0.018884373697530 0.004889649307471)
(0.664103727551975 -0.018839699674090 0.005051729833526)
(0.658414166972414 -0.018695420345868 0.005099406552375)
(0.652533983044369 -0.018546307075152 0.005148680634618)
(0.645965493339616 -0.018318174057690 0.004970241741163)
(0.639624027066725 -0.018091649325498 0.004737496587836)
(0.632830406080850 -0.017989975365775 0.004615699656918)
(0.627057159957135 -0.017869275506501 0.004442900867502)
(0.624726371717501 -0.017564182953247 0.003855168459718)
(0.620985638149115 -0.017100679207532 0.003388804575031)
(0.616485934297536 -0.016553139763561 0.003010329941830)
(0.609595403949849 -0.016073540660094 0.002879462043981)
(0.606776930900632 -0.015531268925028 0.002047540218245)
(0.596141713843652 -0.015164854398441 0.001559194516781)
(0.582031379650780 -0.014952111743172 0.001181751295306)
(0.569489888382285 -0.014818294342541 0.000588390418087)
(0.392533740459024 -0.010444154433529 0.000629894989019)
(0.228501079649680 -0.006246230285012 0.000536940311473)
(0.080482266102726 -0.002200036729402 0.000189120213767)
)
;
    }

    bottomInlet
    {
        type            fixedValue;
        value           nonuniform List<vector>
40
(
(0.071167581039702 0.001945413565147 0.000167232221348)
(0.200557024460611 0.005482360792248 0.000471276334217)
(0.345675581607509 0.009284902257026 0.000644187586658)
(0.508618089927155 0.013316034978502 0.000594487133913)
(0.577185766770997 0.014956779574106 0.000689486871003)
(0.590393464993007 0.015175199130198 0.000952801569562)
(0.604606429946029 0.015326851113568 0.001625242922178)
(0.607621512053878 0.015836714462654 0.002610190291920)
(0.613741170097827 0.016331308503492 0.002919704281136)
(0.617097783749174 0.016641151676475 0.003309125523945)
(0.619311158121764 0.016929441015732 0.003841092561751)
(0.624804058307001 0.017597836006250 0.004303105941162)
(0.630474146087274 0.018025740795487 0.004637705812142)
(0.636433094154403 0.018250533633142 0.004867204903786)
(0.644017708311285 0.018402332995227 0.005037815567199)
(0.652276580815845 0.018539779713312 0.005150837583913)
(0.658414166972414 0.018695420345868 0.005099406552375)
(0.664103727551975 0.018839699674090 0.005051729833526)
(0.667140561709729 0.018884373697530 0.004889649307471)
(0.669918839424726 0.018919346772318 0.004716449318045)
(0.669865586384157 0.018918676420841 0.004719769153932)
(0.667087012193041 0.018883699613999 0.004892987625910)
(0.663994076630946 0.018836919079525 0.005052648673577)
(0.658304516051385 0.018692639751303 0.005100325392427)
(0.652167233435180 0.018537006816107 0.005151753880392)
(0.645004071436854 0.018281905784285 0.004933214156616)
(0.638022558737873 0.018067681602438 0.004708785252920)
(0.630919693766269 0.017961379468635 0.004581444155136)
(0.626191910393735 0.017756017170111 0.004224719223806)
(0.623826791894380 0.017446430898202 0.003628330085281)
(0.618896877424044 0.016846511617015 0.003213116801937)
(0.615132402394381 0.016269988810827 0.002609171055499)
(0.611942302989378 0.015697772724728 0.001758652281920)
(0.603856353182359 0.015301817568074 0.001669214112060)
(0.589045415384023 0.015038869049416 0.001457993170842)
(0.576210517866372 0.014890003292371 0.000906355684000)
(0.499379717081041 0.012906150333935 0.000411867914305)
(0.338986485559453 0.008521693762539 0.000034969950307)
(0.193445621175937 0.004785767577721 -0.000059004461470)
(0.061961742146444 0.001532908808279 -0.000018899467483)
)
;
    }

    outlet
    {
        type zeroGradient; 
    }

    walls
    {
        type noSlip; 
    }

    reflecting
    {
        type zeroGradient; 
    }

    frontBack
    {
        type empty; 
    }
}

// ************************************************************************* //
