/*--------------------------------*- C++ -*----------------------------------*\
| =========                 |                                                 |
| \\      /  F ield         | OpenFOAM: The Open Source CFD Toolbox           |
|  \\    /   O peration     | Version:  4.x                                   |
|   \\  /    A nd           | Web:      www.OpenFOAM.org                      |
|    \\/     M anipulation  |                                                 |
\*---------------------------------------------------------------------------*/
FoamFile
{
    version     2.0;
    format      ascii;
    class       surfaceScalarField;
    location    "0.35";
    object      alphaPhi;
}
// * * * * * * * * * * * * * * * * * * * * * * * * * * * * * * * * * * * * * //

dimensions      [0 3 -1 0 0 0 0];

internalField   nonuniform List<scalar> 
370
(
8.02292e-175
-1.79994e-225
1.7242e-156
-6.53958e-202
5.37505e-140
-1.13592e-180
3.60516e-125
-1.42878e-161
7.23659e-112
-1.96629e-144
5.75847e-100
-4.42383e-129
2.39567e-89
-2.38048e-115
6.49138e-80
-4.16033e-103
1.45149e-71
-3.26563e-92
-1.51104e-82
6.27328e-224
-7.31726e-256
1.90882e-200
-2.38197e-230
2.82974e-179
-3.09308e-207
3.0719e-160
-2.46287e-186
3.67359e-143
-2.64017e-167
7.20907e-128
-4.84714e-150
3.39609e-114
-2.02903e-134
5.20028e-102
-2.40809e-120
3.58019e-91
-1.06496e-107
-2.22011e-96
1.14867e-253
4.12632e-256
2.30434e-228
2.77451e-231
2.15772e-205
-3.02463e-219
1.32411e-184
-8.70131e-198
1.13779e-165
-2.56179e-178
1.71779e-148
-1.47686e-160
6.00832e-133
-1.65575e-144
6.00381e-119
-6.43709e-130
2.24928e-106
-1.12818e-116
-1.07869e-104
7.97794e-255
5.07269e-257
4.94381e-230
2.46795e-232
2.65208e-216
9.98638e-219
2.44626e-195
6.31694e-198
4.14964e-176
5.795e-179
1.61846e-158
1.32031e-162
1.33836e-142
-1.82581e-148
3.96281e-128
-1.2796e-133
5.42334e-115
-2.99452e-120
-3.78581e-108
8.10087e-256
6.07858e-258
3.55237e-231
2.34281e-233
6.19264e-217
3.6704e-219
3.58133e-196
1.94139e-198
2.96466e-177
1.48765e-179
7.38885e-161
3.42383e-163
1.34645e-145
5.75038e-148
4.07601e-131
1.53154e-133
5.6142e-118
1.69885e-120
8.79378e-109
1.16318e-256
1.15398e-258
3.99685e-232
3.76372e-234
-4.64592e-216
-4.23606e-218
-3.8661e-195
-3.45281e-197
-2.19801e-176
-1.93457e-178
-1.79285e-159
-1.55502e-161
-1.57885e-144
-1.34914e-146
4.06902e-130
3.38509e-132
5.34292e-117
4.25196e-119
2.11303e-107
-6.75016e-249
-8.10849e-251
-6.05336e-225
-6.81707e-227
-2.71627e-203
-2.88138e-205
-9.33528e-184
-9.32582e-186
-2.75045e-166
-2.57888e-168
-1.4743e-150
-1.28975e-152
-2.20221e-136
-1.79139e-138
-9.2616e-124
-6.95318e-126
-1.69836e-112
-1.16438e-114
-8.84428e-105
-3.55475e-223
-5.53064e-225
-3.90401e-204
-5.5561e-206
-1.57662e-186
-2.07447e-188
-2.68705e-170
-3.27725e-172
-1.77028e-155
-1.99361e-157
-7.26954e-142
-7.49324e-144
-2.40162e-129
-2.25733e-131
-5.11417e-118
-4.34778e-120
-1.01932e-107
-7.74236e-110
-1.65266e-100
-2.08129e-214
-2.89137e-216
-3.14728e-197
-4.06038e-199
-4.78295e-181
-5.82772e-183
-6.9541e-166
-8.01171e-168
-7.42201e-152
-7.9873e-154
-8.12597e-139
-7.99314e-141
-1.08293e-126
-9.65254e-129
-1.12655e-115
-8.96152e-118
-1.5185e-105
-1.05466e-107
-2.21486e-98
-1.1529e-211
-9.16938e-214
-5.21812e-195
-4.27477e-197
-3.06952e-179
-2.64491e-181
-2.21903e-164
-1.97044e-166
-1.44415e-150
-1.25998e-152
-1.15385e-137
-9.27917e-140
-1.2529e-125
-9.06308e-128
-1.09753e-114
-6.87267e-117
-1.34313e-104
-6.88522e-107
-1.19212e-97
0.000126406
-1.92723e-06
0.000128005
-1.59878e-06
0.000129291
-1.28636e-06
0.000130316
-1.02424e-06
0.00013116
-8.44259e-07
0.000131921
-7.60881e-07
0.000132634
-7.12669e-07
0.000133334
-7.00481e-07
0.000134055
-7.20677e-07
-8.35431e-07
0.000293177
-8.09099e-06
0.000298806
-7.22753e-06
0.000303974
-6.45532e-06
0.000308735
-5.78501e-06
0.000313128
-5.23728e-06
0.000317185
-4.81803e-06
0.00032093
-4.45756e-06
0.000324376
-4.14582e-06
0.000327527
-3.87188e-06
-3.69094e-06
0.000654127
-1.73004e-05
0.000662821
-1.59224e-05
0.00067103
-1.4664e-05
0.000678776
-1.35307e-05
0.000686084
-1.25455e-05
0.000692972
-1.17062e-05
0.000699449
-1.09346e-05
0.000705504
-1.02002e-05
0.000711116
-9.48468e-06
-8.82706e-06
0.00159627
-1.32172e-05
0.00159266
-1.23116e-05
0.00158967
-1.16744e-05
0.00158741
-1.12709e-05
0.00158595
-1.10917e-05
0.00158532
-1.10727e-05
0.00158545
-1.10675e-05
0.00158621
-1.09606e-05
0.00158742
-1.06868e-05
-1.02092e-05
0.00152501
-9.50769e-06
0.00152066
-7.96049e-06
0.00151576
-6.77527e-06
0.0015104
-5.90701e-06
0.00150464
-5.3401e-06
0.00149855
-4.9835e-06
0.00149215
-4.65887e-06
0.00148534
-4.15565e-06
0.00147802
-3.36776e-06
-2.18916e-06
0.00154696
-7.61892e-06
0.00154431
-5.31481e-06
0.00154076
-3.2217e-06
0.00153617
-1.3195e-06
0.00153039
4.42818e-07
0.00152322
2.18327e-06
0.00151444
4.12288e-06
0.0015038
6.47695e-06
0.00149104
9.39962e-06
1.30448e-05
0.00153139
-2.98847e-06
0.00152537
7.04642e-07
0.00151778
4.37639e-06
0.00150832
8.13476e-06
0.00149681
1.19552e-05
0.00148303
1.5961e-05
0.00146677
2.03882e-05
0.00144775
2.54916e-05
0.00142581
3.1338e-05
3.80135e-05
0.00144686
1.15893e-05
0.00143029
1.72761e-05
0.00141182
2.28442e-05
0.00139127
2.86901e-05
0.0013688
3.44231e-05
0.00134434
4.04232e-05
0.00131789
4.68407e-05
0.0012895
5.38763e-05
0.00125923
6.16113e-05
7.01014e-05
0.00122132
3.71357e-05
0.00119537
4.32287e-05
0.00116886
4.93464e-05
0.00114186
5.56924e-05
0.00111403
6.22516e-05
0.00108529
6.91626e-05
0.00105559
7.65466e-05
0.00102493
8.45385e-05
0.000993385
9.31519e-05
0.00010239
0.000878082
0.000856311
0.000833394
0.000809198
0.000783645
0.000756802
0.000728851
0.000700064
0.000670726
)
;

boundaryField
{
    walls
    {
        type            calculated;
        value           nonuniform List<scalar> 
20
(
5.1223e-176
1.26459e-157
4.50703e-141
3.44374e-126
7.85224e-113
7.08432e-101
3.33438e-90
1.02108e-80
2.57752e-72
6.65803e-65
5.80695e-05
6.49989e-05
7.22636e-05
7.98891e-05
8.78042e-05
9.60057e-05
0.000104497
0.000113325
0.00012249
0.000132004
)
;
    }
    topInlet
    {
        type            calculated;
        value           nonuniform 0();
    }
    bottomInlet
    {
        type            calculated;
        value           nonuniform 0();
    }
    outlet
    {
        type            calculated;
        value           nonuniform 0();
    }
    frontBack
    {
        type            empty;
        value           nonuniform 0();
    }
    procBoundary2to1
    {
        type            processor;
        value           nonuniform List<scalar> 
20
(
-3.41541e-195
-6.56257e-250
-5.76584e-279
-6.17119e-280
-7.22809e-281
-1.03512e-281
4.44847e-275
1.30216e-243
1.42321e-232
-1.22733e-211
-0.000124475
-0.000287013
-0.000644917
-0.00160035
-0.00152872
-0.00154884
-0.00153602
-0.00146144
-0.00124686
-0.000899016
)
;
    }
    procBoundary2to3
    {
        type            processor;
        value           nonuniform List<scalar> 
20
(
3.3228e-64
1.45343e-81
3.98371e-95
4.10932e-103
4.6062e-106
2.88106e-105
-1.44457e-102
-2.51343e-98
-3.90129e-96
-3.50363e-95
0.00013489
0.000330382
0.000716253
0.0015888
0.00147
0.0014758
0.00140085
0.00122714
0.000961096
0.000641112
)
;
    }
}


// ************************************************************************* //
