/*--------------------------------*- C++ -*----------------------------------*\
| =========                 |                                                 |
| \\      /  F ield         | OpenFOAM: The Open Source CFD Toolbox           |
|  \\    /   O peration     | Version:  4.x                                   |
|   \\  /    A nd           | Web:      www.OpenFOAM.org                      |
|    \\/     M anipulation  |                                                 |
\*---------------------------------------------------------------------------*/
FoamFile
{
    version     2.0;
    format      ascii;
    class       volScalarField;
    location    "0.1";
    object      alpha.upper;
}
// * * * * * * * * * * * * * * * * * * * * * * * * * * * * * * * * * * * * * //

dimensions      [0 0 0 0 0 0 0];

internalField   nonuniform List<scalar> 
200
(
4.60605e-21
1.59859e-19
3.12521e-18
2.67621e-17
1.50158e-16
6.33188e-16
2.12662e-15
5.86496e-15
1.38489e-14
3.36461e-14
3.9229e-24
4.12601e-22
2.0016e-20
2.91053e-19
2.5856e-18
1.67194e-17
8.50724e-17
3.54459e-16
1.28041e-15
4.4254e-15
2.29941e-26
5.56755e-24
5.2918e-22
1.09932e-20
1.36354e-19
1.22451e-18
8.62574e-18
4.94872e-17
2.43689e-16
1.03657e-15
1.32041e-27
4.99214e-25
6.90319e-23
1.73187e-21
2.60356e-20
2.91635e-19
2.59883e-18
1.80774e-17
1.05348e-16
4.94326e-16
5.14673e-28
2.29013e-25
3.68399e-23
9.94017e-22
1.62739e-20
3.15381e-19
5.383e-18
3.30163e-17
1.34908e-16
5.00137e-16
1.13489e-27
5.05922e-25
7.68357e-23
1.9685e-21
3.1526e-20
4.92578e-18
2.21558e-16
9.56499e-16
2.0226e-15
2.97687e-15
5.04642e-28
1.77535e-24
3.75012e-22
1.03126e-20
1.69074e-19
4.94266e-16
2.55063e-14
2.76602e-14
2.67599e-14
2.81981e-14
-5.42944e-26
-2.21384e-24
-2.99009e-24
1.27882e-26
2.84127e-24
-1.82674e-12
-4.91657e-12
1.14138e-13
1.56265e-13
1.59574e-13
-7.82501e-24
-1.4308e-21
-4.12525e-19
-4.85023e-10
-1.84054e-09
-3.94741e-09
-5.81883e-09
5.53998e-10
8.79489e-10
8.58576e-10
-8.54277e-23
0.000435901
0.00201354
0.00487539
0.00895263
0.0143591
0.020344
0.0266047
0.0330973
0.0420492
0.880045
0.880926
0.882831
0.885584
0.889052
0.893287
0.897687
0.902025
0.90639
0.912094
1
1
1
1
1
1
1
1
1
1
1
1
1
1
1
1
1
1
1
0.999996
1
1
1
1
1
1
1
1
1
0.999997
1
1
1
1
1
1
1
1
1
1
1
1
1
1
1
1
1
1
1
0.999997
1
1
1
1
1
1
1
1
1
0.999984
1
1
1
1
1
1
1
1
1
0.99994
1
1
1
1
1
1
1
1
1
0.999574
1
1
1
1
1
1
1
1
1
0.99883
)
;

boundaryField
{
    walls
    {
        type            zeroGradient;
    }
    topInlet
    {
        type            fixedValue;
        value           nonuniform 0();
    }
    bottomInlet
    {
        type            fixedValue;
        value           nonuniform 0();
    }
    outlet
    {
        type            inletOutlet;
        inletValue      uniform 0;
        value           nonuniform List<scalar> 
20
(
3.36461e-14
4.4254e-15
1.03657e-15
4.94326e-16
5.00137e-16
2.97687e-15
2.81981e-14
1.59574e-13
8.58576e-10
0.0420492
0.912094
1
0.999996
0.999997
1
0.999997
0.999984
0.99994
0.999574
0.99883
)
;
    }
    frontBack
    {
        type            empty;
    }
    procBoundary3to2
    {
        type            processor;
        value           nonuniform List<scalar> 
20
(
7.59677e-23
1.865e-26
4.29651e-29
1.54937e-30
5.43249e-31
1.15715e-30
-1.27989e-30
-4.7394e-28
-5.07144e-26
-5.3241e-25
0.881176
1
1
1
1
1
1
1
1
1
)
;
    }
}


// ************************************************************************* //
