/*--------------------------------*- C++ -*----------------------------------*\
| =========                 |                                                 |
| \\      /  F ield         | OpenFOAM: The Open Source CFD Toolbox           |
|  \\    /   O peration     | Version:  4.x                                   |
|   \\  /    A nd           | Web:      www.OpenFOAM.org                      |
|    \\/     M anipulation  |                                                 |
\*---------------------------------------------------------------------------*/
FoamFile
{
    version     2.0;
    format      ascii;
    class       surfaceScalarField;
    location    "0.1";
    object      alphaPhi;
}
// * * * * * * * * * * * * * * * * * * * * * * * * * * * * * * * * * * * * * //

dimensions      [0 3 -1 0 0 0 0];

internalField   nonuniform List<scalar> 
370
(
2.83363e-24
-4.32319e-28
9.37418e-23
-4.98274e-26
1.74423e-21
-2.56166e-24
1.42714e-20
-3.60116e-23
7.68036e-20
-3.13818e-22
3.11516e-19
-1.99017e-21
1.00866e-18
-9.87876e-21
2.7015e-18
-3.99053e-20
6.09947e-18
-1.47386e-19
-3.03458e-19
3.65315e-27
-1.7954e-30
3.70799e-25
-4.91138e-28
1.73469e-23
-5.07746e-26
2.439e-22
-1.04507e-24
2.09949e-21
-1.30042e-23
1.31801e-20
-1.16766e-22
6.5236e-20
-8.16314e-22
2.65341e-19
-4.66818e-21
9.29814e-19
-2.25939e-20
-5.4786e-20
2.74944e-29
-5.92531e-32
6.46494e-27
-2.67971e-29
5.96136e-25
-4.23137e-27
1.20352e-23
-1.09669e-25
1.45252e-22
-1.71408e-24
1.27086e-21
-1.98202e-23
8.73484e-21
-1.80436e-22
4.89605e-20
-1.28422e-21
2.35297e-19
-7.26077e-21
-1.98084e-20
1.81555e-30
-8.84491e-33
6.71172e-28
-5.30155e-30
9.05938e-26
-1.07516e-27
2.21976e-24
-3.24945e-26
3.26014e-23
-5.90836e-25
3.56948e-22
-1.25301e-23
3.11134e-21
-2.29771e-22
2.11838e-20
-1.50782e-21
1.20855e-19
-5.97349e-21
-1.31991e-20
7.51624e-31
2.59502e-34
3.29739e-28
-1.30581e-30
5.22021e-26
-4.88854e-28
1.38574e-24
-1.92431e-26
2.23097e-23
-4.13368e-25
4.25021e-22
-8.11864e-23
7.13022e-21
-4.3473e-21
4.29765e-20
-2.17742e-20
1.72643e-19
-4.51188e-20
-4.34738e-20
1.66146e-30
1.07126e-32
7.3551e-28
3.84668e-30
1.10827e-25
3.87422e-28
2.81604e-24
4.07264e-27
4.47042e-23
-9.6389e-26
6.91943e-21
-1.5871e-21
3.08127e-19
-2.79608e-19
1.31607e-18
-9.84401e-19
2.75402e-18
-1.58026e-18
-1.17122e-18
8.03916e-31
4.27002e-33
2.82925e-27
1.24562e-29
5.97546e-25
1.97446e-27
1.642e-23
3.34472e-26
2.68841e-22
2.66862e-25
7.84312e-19
2.56835e-23
7.87809e-17
-7.80311e-17
1.95102e-16
-1.58573e-16
3.1025e-16
-2.68457e-16
-2.46858e-16
-3.91715e-29
-2.13343e-31
-1.60599e-27
-6.75623e-30
-2.1787e-27
-6.14622e-30
1.86037e-27
2.94171e-26
1.80155e-26
2.52699e-25
1.85859e-13
-1.85901e-13
4.90098e-13
-4.576e-13
8.517e-13
-7.95536e-13
9.7051e-13
-9.67313e-13
-9.46574e-13
-2.606e-27
-1.08732e-29
-4.79684e-25
-1.18806e-27
-1.39053e-22
-9.63472e-26
1.5312e-10
-1.5312e-10
6.37959e-10
-4.87998e-10
1.43647e-09
-8.08786e-10
2.23133e-09
-8.12907e-10
3.11385e-09
-9.01841e-10
3.59506e-09
-5.02845e-10
1.50442e-09
-1.31936e-26
-1.52082e-29
1.29294e-07
-1.29292e-07
4.90527e-07
-3.61215e-07
1.04358e-06
-5.53166e-07
1.79274e-06
-7.50465e-07
2.73126e-06
-9.38548e-07
3.71092e-06
-9.74843e-07
4.72002e-06
-1.01925e-06
5.83131e-06
-1.04728e-06
-9.20475e-07
0.000135911
-1.03512e-06
0.000137071
-1.28937e-06
0.000138217
-1.50719e-06
0.000139265
-1.60084e-06
0.000140265
-1.75055e-06
0.000141222
-1.89514e-06
0.000142032
-1.78091e-06
0.000142722
-1.71979e-06
0.000143391
-1.6686e-06
-1.44397e-06
0.000332938
-3.59038e-06
0.000335171
-3.52315e-06
0.000337002
-3.33758e-06
0.000338327
-2.9257e-06
0.000339259
-2.68279e-06
0.000339838
-2.47399e-06
0.000340077
-2.02062e-06
0.000340054
-1.69631e-06
0.000339886
-1.50061e-06
-1.27125e-06
0.000720875
-8.2128e-06
0.000724913
-7.56122e-06
0.000728175
-6.59905e-06
0.000730461
-5.21193e-06
0.000731971
-4.19336e-06
0.000732759
-3.2618e-06
0.000732849
-2.11099e-06
0.000732323
-1.1694e-06
0.000731674
-8.52122e-07
-5.74001e-07
0.00159009
-9.49975e-06
0.00159094
-8.41482e-06
0.00159092
-6.58185e-06
0.00158986
-4.14917e-06
0.00158774
-2.07403e-06
0.00158446
1.69591e-08
0.00157994
2.41233e-06
0.00157406
4.70733e-06
0.00156846
4.74747e-06
3.471e-06
0.00146103
-5.30416e-07
0.00145081
1.80414e-06
0.00143934
4.89506e-06
0.00142741
7.77399e-06
0.00141475
1.05903e-05
0.00140127
1.34948e-05
0.00138702
1.66595e-05
0.00137192
1.98143e-05
0.0013573
1.93648e-05
1.19053e-05
0.00145784
1.74356e-05
0.00143696
2.26791e-05
0.00141381
2.8044e-05
0.00139054
3.10484e-05
0.00136694
3.41879e-05
0.00134324
3.71949e-05
0.0013197
4.01984e-05
0.0012963
4.32143e-05
0.00127386
4.1811e-05
2.39356e-05
0.00137277
4.55105e-05
0.00134175
5.37006e-05
0.00130904
6.07489e-05
0.00127778
6.23164e-05
0.00124757
6.43975e-05
0.00121863
6.61297e-05
0.00119122
6.76144e-05
0.00116521
6.9221e-05
0.00113999
6.70284e-05
3.79157e-05
0.00119335
7.92969e-05
0.00115808
8.89746e-05
0.00112258
9.62462e-05
0.00108999
9.49097e-05
0.0010596
9.47867e-05
0.00103139
9.43401e-05
0.00100545
9.35499e-05
0.000981516
9.31593e-05
0.000957136
9.14081e-05
5.10025e-05
0.000928199
0.000112194
0.000894749
0.000122425
0.000861758
0.000129237
0.000832189
0.000124479
0.00080532
0.000121656
0.000780859
0.000118801
0.00075873
0.00011568
0.000739915
0.000111974
0.000717005
0.000114318
6.69338e-05
0.00061147
0.000581748
0.000552533
0.000526857
0.000504297
0.000484114
0.000465953
0.000451835
0.000431296
)
;

boundaryField
{
    walls
    {
        type            calculated;
        value           nonuniform List<scalar> 
20
(
6.4026e-25
2.39086e-23
4.88364e-22
3.97614e-21
2.14962e-20
8.77217e-20
2.84539e-19
7.4055e-19
1.87368e-18
2.76237e-18
0.000141836
0.000152146
0.000158452
0.000150156
0.000144215
0.000138984
0.000133841
0.000126092
0.000134857
8.06992e-05
)
;
    }
    topInlet
    {
        type            calculated;
        value           nonuniform 0();
    }
    bottomInlet
    {
        type            calculated;
        value           nonuniform 0();
    }
    outlet
    {
        type            calculated;
        value           nonuniform List<scalar> 
20
(
1.43636e-17
3.14411e-18
9.87628e-19
5.60324e-19
6.34132e-19
4.02883e-18
2.88518e-16
6.28226e-13
2.06856e-09
6.62748e-06
0.000143832
0.000339713
0.000730974
0.00156441
0.00134886
0.00126182
0.00112599
0.000943978
0.000700764
0.000416976
)
;
    }
    frontBack
    {
        type            empty;
        value           nonuniform 0();
    }
    procBoundary3to2
    {
        type            processor;
        value           nonuniform List<scalar> 
20
(
-4.89231e-26
-1.79666e-29
-5.28008e-32
-2.17327e-33
-8.02965e-34
-1.70438e-33
2.03767e-33
3.39783e-31
1.67609e-29
8.15811e-29
-0.00013489
-0.000330382
-0.000716253
-0.0015888
-0.00147
-0.0014758
-0.00140085
-0.00122714
-0.000961096
-0.000641112
)
;
    }
}


// ************************************************************************* //
