/*--------------------------------*- C++ -*----------------------------------*\
| =========                 |                                                 |
| \\      /  F ield         | OpenFOAM: The Open Source CFD Toolbox           |
|  \\    /   O peration     | Version:  4.x                                   |
|   \\  /    A nd           | Web:      www.OpenFOAM.org                      |
|    \\/     M anipulation  |                                                 |
\*---------------------------------------------------------------------------*/
FoamFile
{
    version     2.0;
    format      ascii;
    class       volScalarField;
    location    "0.1";
    object      epsilon;
}
// * * * * * * * * * * * * * * * * * * * * * * * * * * * * * * * * * * * * * //

dimensions      [0 2 -3 0 0 0 0];

internalField   nonuniform List<scalar> 
200
(
14312.4
13323.5
12369.6
11517
10780.7
10142.5
9581.06
9080.15
8820.02
8057.74
2693.2
2568.43
2446.51
2335.92
2235.11
2143.95
2061.54
1986.68
1923.48
1872.47
711.134
719.913
727.468
733.238
736.654
738.051
737.537
734.383
729.015
750.518
176.11
192.149
210.355
229.024
247.658
265.81
282.903
298.273
312.658
337.907
40.3315
44.9456
51.1517
58.6021
67.3327
77.3118
88.3811
100.291
113.408
131.047
12.9331
13.171
13.989
15.385
17.4054
20.107
23.5585
27.8383
33.2116
40.5005
6.52693
5.91109
5.50163
5.33727
5.4124
5.73892
6.32953
7.21737
8.48458
10.3027
4.25484
3.84538
3.5193
3.30651
3.20499
3.21894
3.35861
3.6395
4.09496
4.78204
3.74702
3.41589
3.13831
2.94319
2.83237
2.81148
2.88997
3.08222
3.41482
3.92779
3.66346
3.3469
3.07916
2.88898
2.77902
2.75513
2.82681
3.00865
3.32671
3.81871
3.6576
3.34283
3.07678
2.88816
2.77974
2.75737
2.83063
3.01445
3.33525
3.83093
3.72159
3.39804
3.12759
2.93897
2.83455
2.81989
2.90484
3.10508
3.44874
3.97665
4.1862
3.79657
3.4892
3.29348
3.20861
3.2387
3.39506
3.6968
4.18138
4.9081
6.41367
5.83062
5.45548
5.3253
5.43537
5.79249
6.42695
7.37601
8.7281
10.6629
12.9851
13.2391
14.0784
15.5067
17.582
20.3833
23.9744
28.451
34.096
41.7507
40.6745
45.2629
51.4702
58.9754
67.8432
78.0706
89.4916
101.868
115.572
133.951
177.173
193.047
211.233
230.065
249.062
267.773
285.514
301.603
316.797
343.034
718.105
726.479
733.801
739.49
742.947
744.503
744.071
741.006
735.958
757.853
2744.42
2613.64
2485.39
2368.82
2262.58
2166.56
2079.8
2001.29
1935.69
1880.93
14632.4
13587.6
12578.1
11675.9
10897.1
10221.1
9629.33
9105.12
8825.95
8036.56
)
;

boundaryField
{
    walls
    {
        Cmu             0.09;
        kappa           0.41;
        E               9.8;
        type            epsilonWallFunction;
        value           nonuniform List<scalar> 
20
(
14312.4
13323.5
12369.6
11517
10780.7
10142.5
9581.06
9080.15
8820.02
8057.74
14632.4
13587.6
12578.1
11675.9
10897.1
10221.1
9629.33
9105.12
8825.95
8036.56
)
;
    }
    topInlet
    {
        type            fixedValue;
        value           nonuniform 0();
    }
    bottomInlet
    {
        type            fixedValue;
        value           nonuniform 0();
    }
    outlet
    {
        type            zeroGradient;
    }
    frontBack
    {
        type            empty;
    }
    procBoundary3to2
    {
        type            processor;
        value           nonuniform List<scalar> 
20
(
15338.5
2818
701.041
162.341
37.0368
13.1464
7.30362
4.72876
4.11557
4.01302
4.00528
4.08212
4.6393
7.15993
13.1807
37.4128
163.648
708.608
2874.79
15712.7
)
;
    }
}


// ************************************************************************* //
