/*--------------------------------*- C++ -*----------------------------------*\
| =========                 |                                                 |
| \\      /  F ield         | OpenFOAM: The Open Source CFD Toolbox           |
|  \\    /   O peration     | Version:  4.x                                   |
|   \\  /    A nd           | Web:      www.OpenFOAM.org                      |
|    \\/     M anipulation  |                                                 |
\*---------------------------------------------------------------------------*/
FoamFile
{
    version     2.0;
    format      ascii;
    class       volScalarField;
    location    "0.1";
    object      k;
}
// * * * * * * * * * * * * * * * * * * * * * * * * * * * * * * * * * * * * * //

dimensions      [0 2 -2 0 0 0 0];

internalField   nonuniform List<scalar> 
200
(
14.6024
13.9217
13.2491
12.633
12.0887
11.6069
11.1746
10.7807
10.5727
9.9553
5.01758
4.90926
4.80298
4.70646
4.61559
4.53111
4.45271
4.37834
4.29858
4.30787
2.14978
2.23215
2.31618
2.39534
2.46755
2.53297
2.59083
2.63786
2.67347
2.80765
0.783458
0.871159
0.972966
1.07991
1.18998
1.3011
1.41034
1.51456
1.61745
1.77172
0.260332
0.290746
0.332773
0.384151
0.445269
0.516102
0.595837
0.683239
0.781003
0.907568
0.119831
0.121812
0.128587
0.140413
0.157883
0.181637
0.212406
0.25105
0.299926
0.364916
0.0713495
0.0685924
0.066754
0.0664596
0.0680752
0.0720362
0.0787458
0.0887756
0.103146
0.123536
0.0494587
0.0486844
0.0479111
0.0474875
0.0476892
0.048808
0.051173
0.0551611
0.0613272
0.0703972
0.0444647
0.0443456
0.0440415
0.043834
0.0439941
0.0448024
0.0465644
0.0496358
0.0544993
0.0617254
0.0436307
0.0436281
0.0434136
0.0432577
0.0434322
0.0442155
0.0459108
0.0488742
0.0535818
0.0605816
0.0435624
0.0435709
0.0433684
0.0432252
0.0434136
0.0442118
0.0459233
0.0489073
0.0536438
0.0606811
0.04417
0.044098
0.0438453
0.0436909
0.0439089
0.0447779
0.0466059
0.0497608
0.0547403
0.0621197
0.0486552
0.0480053
0.0473679
0.0470843
0.0474361
0.0487115
0.0512449
0.0554468
0.0619109
0.0713796
0.0697785
0.0672268
0.0656378
0.0656201
0.0675393
0.0717827
0.0788934
0.0894844
0.104633
0.12607
0.118707
0.120808
0.127716
0.139725
0.157514
0.181905
0.213599
0.253599
0.304391
0.371923
0.259343
0.289405
0.331145
0.382492
0.444038
0.515972
0.597488
0.687464
0.788634
0.919431
0.779681
0.866114
0.96726
1.07445
1.18582
1.29935
1.41171
1.51969
1.62703
1.78653
2.14742
2.22918
2.31349
2.39369
2.46762
2.53542
2.59567
2.64528
2.68424
2.82229
5.06206
4.94932
4.83816
4.73685
4.64155
4.55324
4.4712
4.39376
4.3129
4.31954
14.8192
14.1051
13.3975
12.7489
12.1756
11.6668
11.2121
10.8004
10.5775
9.93787
)
;

boundaryField
{
    walls
    {
        type            kqRWallFunction;
        value           nonuniform List<scalar> 
20
(
14.6024
13.9217
13.2491
12.633
12.0887
11.6069
11.1746
10.7807
10.5727
9.9553
14.8192
14.1051
13.3975
12.7489
12.1756
11.6668
11.2121
10.8004
10.5775
9.93787
)
;
    }
    topInlet
    {
        type            fixedValue;
        value           nonuniform 0();
    }
    bottomInlet
    {
        type            fixedValue;
        value           nonuniform 0();
    }
    outlet
    {
        type            zeroGradient;
    }
    frontBack
    {
        type            empty;
    }
    procBoundary3to2
    {
        type            processor;
        value           nonuniform List<scalar> 
20
(
15.2922
5.12348
2.06933
0.709705
0.239443
0.121306
0.0744004
0.0500028
0.0442456
0.0432796
0.0432015
0.0439088
0.0490892
0.07267
0.120044
0.238763
0.707468
2.06841
5.17193
15.5399
)
;
    }
}


// ************************************************************************* //
