/*--------------------------------*- C++ -*----------------------------------*\
| =========                 |                                                 |
| \\      /  F ield         | OpenFOAM: The Open Source CFD Toolbox           |
|  \\    /   O peration     | Version:  4.x                                   |
|   \\  /    A nd           | Web:      www.OpenFOAM.org                      |
|    \\/     M anipulation  |                                                 |
\*---------------------------------------------------------------------------*/
FoamFile
{
    version     2.0;
    format      ascii;
    class       volScalarField;
    location    "0.1";
    object      nut;
}
// * * * * * * * * * * * * * * * * * * * * * * * * * * * * * * * * * * * * * //

dimensions      [0 2 -1 0 0 0 0];

internalField   nonuniform List<scalar> 
200
(
0.00134084
0.00130922
0.0012772
0.00124715
0.00121998
0.00119545
0.001173
0.00115197
0.00114062
0.00110698
0.000841325
0.000844515
0.000848628
0.00085344
0.000857824
0.000861861
0.000865565
0.000868428
0.00086458
0.000891974
0.000584897
0.000622885
0.000663702
0.000704259
0.000743893
0.000782376
0.000819097
0.000852757
0.00088238
0.000945296
0.000313682
0.000355467
0.000405027
0.000458283
0.000514597
0.000573178
0.000632782
0.000692147
0.000753072
0.000836053
0.000151235
0.000169271
0.00019484
0.000226638
0.00026501
0.000310076
0.000361525
0.000418915
0.000484067
0.000565683
9.99256e-05
0.000101392
0.000106378
0.000115334
0.000128893
0.000147674
0.000172357
0.000203761
0.000243771
0.000295916
7.01966e-05
7.16352e-05
7.28962e-05
7.44798e-05
7.70602e-05
8.13794e-05
8.8171e-05
9.82766e-05
0.000112855
0.000133314
5.17422e-05
5.54732e-05
5.87028e-05
6.13805e-05
6.3864e-05
6.66056e-05
7.0172e-05
7.52432e-05
8.26607e-05
9.32696e-05
4.74884e-05
5.18132e-05
5.56252e-05
5.87552e-05
6.1501e-05
6.42555e-05
6.75238e-05
7.19396e-05
7.82809e-05
8.73018e-05
4.67665e-05
5.11838e-05
5.50885e-05
5.8294e-05
6.10906e-05
6.38631e-05
6.71082e-05
7.14544e-05
7.76716e-05
8.64982e-05
4.66949e-05
5.11117e-05
5.50165e-05
5.82231e-05
6.10226e-05
6.38004e-05
6.70541e-05
7.14139e-05
7.76522e-05
8.65058e-05
4.71811e-05
5.15054e-05
5.53197e-05
5.84561e-05
6.12157e-05
6.39938e-05
6.7298e-05
7.17704e-05
7.81981e-05
8.73341e-05
5.08958e-05
5.46299e-05
5.78742e-05
6.05814e-05
6.31166e-05
6.59379e-05
6.96139e-05
7.4846e-05
8.25008e-05
9.3428e-05
6.8325e-05
6.97611e-05
7.10751e-05
7.27733e-05
7.55312e-05
8.00601e-05
8.71603e-05
9.77048e-05
0.000112891
0.00013415
9.76677e-05
9.9214e-05
0.000104275
0.00011331
0.000127002
0.000146103
0.000171275
0.000203441
0.00024457
0.000298185
0.000148823
0.000166538
0.000191744
0.000223263
0.000261563
0.000306907
0.000359021
0.000417548
0.00048433
0.000567983
0.000308802
0.000349727
0.000398628
0.000451614
0.000508131
0.000567452
0.000628215
0.000689159
0.00075206
0.000837389
0.000577947
0.000615616
0.000656444
0.000697345
0.000737633
0.000777096
0.00081494
0.000849896
0.000881113
0.000945932
0.000840326
0.000843504
0.000847635
0.000852494
0.00085697
0.000861217
0.000865105
0.000868171
0.00086486
0.000892783
0.00135076
0.00131781
0.00128433
0.00125286
0.00122436
0.00119854
0.00117496
0.00115302
0.00114089
0.00110601
)
;

boundaryField
{
    walls
    {
        type            nutkWallFunction;
        Cmu             0.09;
        kappa           0.41;
        E               9.8;
        value           uniform 0;
    }
    topInlet
    {
        type            calculated;
        value           nonuniform 0();
    }
    bottomInlet
    {
        type            calculated;
        value           nonuniform 0();
    }
    outlet
    {
        type            calculated;
        value           nonuniform List<scalar> 
20
(
0.00110698
0.000891974
0.000945296
0.000836053
0.000565683
0.000295916
0.000133314
9.32696e-05
8.73018e-05
8.64982e-05
8.65058e-05
8.73341e-05
9.3428e-05
0.00013415
0.000298185
0.000567983
0.000837389
0.000945932
0.000892783
0.00110601
)
;
    }
    frontBack
    {
        type            empty;
    }
    procBoundary3to2
    {
        type            processor;
        value           nonuniform List<scalar> 
20
(
0.00137214
0.000838361
0.000549741
0.000279235
0.00013932
0.00010074
6.82112e-05
4.75865e-05
4.28107e-05
4.20086e-05
4.19381e-05
4.25069e-05
4.6748e-05
6.63811e-05
9.83976e-05
0.000137137
0.000275261
0.000543389
0.000837418
0.00138321
)
;
    }
}


// ************************************************************************* //
