/*--------------------------------*- C++ -*----------------------------------*\
| =========                 |                                                 |
| \\      /  F ield         | OpenFOAM: The Open Source CFD Toolbox           |
|  \\    /   O peration     | Version:  4.x                                   |
|   \\  /    A nd           | Web:      www.OpenFOAM.org                      |
|    \\/     M anipulation  |                                                 |
\*---------------------------------------------------------------------------*/
FoamFile
{
    version     2.0;
    format      ascii;
    class       volScalarField;
    location    "0.1";
    object      p;
}
// * * * * * * * * * * * * * * * * * * * * * * * * * * * * * * * * * * * * * //

dimensions      [1 -1 -2 0 0 0 0];

internalField   nonuniform List<scalar> 
200
(
2594.84
2499.27
2385.71
2277.19
2200.48
2135.27
2069.14
1964.68
2085.14
1354.92
-25.5561
-0.661658
16.0432
33.6131
52.8398
64.7325
75.0354
88.644
64.0883
5.08146
1022.56
981.621
933.902
893.859
868.12
843.623
818.785
780.263
825.253
511.555
527.592
534.277
527.612
525.066
532.839
533.507
529.491
517.326
527.612
212.439
729.834
700.479
659.535
630.302
616.268
598.699
579.777
553.999
565.948
236.256
563.2
557.427
543.818
533.244
534.394
532.297
523.927
506.215
512.683
168.274
621.541
599.96
569.608
547.411
535.588
517.486
499.406
476.819
478.585
138.824
554.599
539.598
515.78
497.798
489.944
480.172
469.741
449.407
451.657
111.273
547.755
532.185
507.913
489.943
482.46
470.777
458.717
437.785
440.029
99.1583
543.599
527.78
503.248
485.025
477.224
465.67
453.43
432.385
434.657
93.6192
540.207
524.355
499.779
481.509
473.631
462.194
449.962
428.933
431.214
90.1299
533.769
518.086
493.648
475.518
467.762
456.461
444.308
423.419
425.704
84.6185
518.025
503.262
479.51
462.003
454.836
443.909
431.944
411.477
413.832
72.8408
533.869
511.396
480.654
457.001
445.263
430.48
413.149
389.784
391.106
51.2262
415.693
409.076
392.882
383.871
382.885
376.388
370.888
353.34
359.032
11.6877
520.564
490.534
450.611
419.18
403.775
385.452
367.136
340.525
351.935
20.7717
259.696
264.667
256.361
252.999
259.487
258.137
255.067
242.825
252.708
-65.8609
693.92
651.47
602.135
559.897
532.137
505.197
479.013
439.569
483.175
167.402
-414.156
-389.617
-372.954
-355.263
-336.055
-324.224
-312.871
-299.394
-322.706
-385.003
2159.4
2055.78
1934.23
1818.37
1735.13
1662.11
1591.07
1484.59
1600.37
865.299
)
;

boundaryField
{
    walls
    {
        type            calculated;
        value           nonuniform List<scalar> 
20
(
247.212
247.212
247.212
247.212
247.212
247.212
247.212
247.212
247.212
247.212
-244.759
-244.759
-244.759
-244.76
-244.76
-244.76
-244.76
-244.759
-244.759
-244.762
)
;
    }
    topInlet
    {
        type            calculated;
        value           nonuniform 0();
    }
    bottomInlet
    {
        type            calculated;
        value           nonuniform 0();
    }
    outlet
    {
        type            calculated;
        value           nonuniform List<scalar> 
20
(
231.761
200.86
169.958
139.057
108.155
77.2537
44.4387
19.0147
7.21387
1.7357
-1.72072
-7.14231
-18.826
-43.9979
-76.4873
-107.082
-137.677
-168.272
-198.868
-229.465
)
;
    }
    frontBack
    {
        type            empty;
    }
    procBoundary3to2
    {
        type            processor;
        value           nonuniform List<scalar> 
20
(
2693.26
-56.292
1067.1
513.428
762.389
565.043
643.197
568.797
562.598
558.695
555.326
548.676
531.85
556.299
418.836
552.102
248.773
739.145
-443.921
2265.28
)
;
    }
}


// ************************************************************************* //
