/*--------------------------------*- C++ -*----------------------------------*\
| =========                 |                                                 |
| \\      /  F ield         | OpenFOAM: The Open Source CFD Toolbox           |
|  \\    /   O peration     | Version:  4.x                                   |
|   \\  /    A nd           | Web:      www.OpenFOAM.org                      |
|    \\/     M anipulation  |                                                 |
\*---------------------------------------------------------------------------*/
FoamFile
{
    version     2.0;
    format      ascii;
    class       volScalarField;
    location    "0.1";
    object      p_rgh;
}
// * * * * * * * * * * * * * * * * * * * * * * * * * * * * * * * * * * * * * //

dimensions      [1 -1 -2 0 0 0 0];

internalField   nonuniform List<scalar> 
200
(
2363.08
2267.51
2153.95
2045.43
1968.72
1903.51
1837.37
1732.92
1853.38
1123.16
-226.416
-201.521
-184.817
-167.247
-148.02
-136.127
-125.824
-112.216
-136.771
-195.778
852.6
811.662
763.944
723.901
698.161
673.665
648.826
610.305
655.295
341.597
388.535
395.22
388.556
386.009
393.783
394.451
390.434
378.269
388.555
73.382
621.678
592.324
551.38
522.147
508.113
490.544
471.621
445.843
457.793
128.101
485.946
480.173
466.565
455.99
457.141
455.043
446.673
428.961
435.43
91.0202
577.102
555.521
525.169
502.972
491.149
473.047
454.967
432.38
434.146
94.3848
535.584
520.583
496.765
478.784
470.93
461.158
450.727
430.392
432.642
92.2588
540.541
524.971
500.699
482.729
475.246
463.563
451.504
430.571
432.815
91.9444
541.862
526.044
501.511
483.289
475.487
463.933
451.694
430.649
432.921
91.8835
541.929
526.077
501.5
483.23
475.353
463.915
451.683
430.654
432.935
91.8506
540.911
525.228
500.79
482.661
474.905
463.604
451.451
430.562
432.846
91.7608
536.851
522.088
498.336
480.829
473.662
462.735
450.77
430.303
432.658
91.6669
577.867
555.393
524.652
500.999
489.261
474.478
457.147
433.782
435.104
95.2241
492.18
485.563
469.369
460.358
459.372
452.876
447.375
429.827
435.519
88.175
627.647
597.617
557.693
526.263
510.858
492.535
474.218
447.607
459.018
127.854
397.373
402.344
394.038
390.676
397.165
395.814
392.744
380.502
390.385
71.8164
862.192
819.742
770.407
728.17
700.41
673.469
647.285
607.842
651.447
335.674
-215.289
-190.75
-174.087
-156.396
-137.188
-125.357
-114.004
-100.527
-123.839
-186.135
2388.86
2285.24
2163.69
2047.83
1964.59
1891.57
1820.54
1714.05
1829.83
1094.76
)
;

boundaryField
{
    walls
    {
        type            fixedValue;
        value           uniform 0;
    }
    topInlet
    {
        type            fixedValue;
        value           nonuniform 0();
    }
    bottomInlet
    {
        type            fixedValue;
        value           nonuniform 0();
    }
    outlet
    {
        type            fixedValue;
        value           uniform 0;
    }
    frontBack
    {
        type            empty;
    }
    procBoundary3to2
    {
        type            processor;
        value           nonuniform List<scalar> 
20
(
2461.5
-257.152
897.147
374.371
654.234
487.789
598.759
549.782
555.384
556.958
557.048
555.818
550.676
600.297
495.324
659.185
386.45
907.417
-245.054
2494.74
)
;
    }
}


// ************************************************************************* //
