/*--------------------------------*- C++ -*----------------------------------*\
| =========                 |                                                 |
| \\      /  F ield         | OpenFOAM: The Open Source CFD Toolbox           |
|  \\    /   O peration     | Version:  4.x                                   |
|   \\  /    A nd           | Web:      www.OpenFOAM.org                      |
|    \\/     M anipulation  |                                                 |
\*---------------------------------------------------------------------------*/
FoamFile
{
    version     2.0;
    format      ascii;
    class       surfaceScalarField;
    location    "0.1";
    object      phi;
}
// * * * * * * * * * * * * * * * * * * * * * * * * * * * * * * * * * * * * * //

dimensions      [0 3 -1 0 0 0 0];

internalField   nonuniform List<scalar> 
370
(
0.000615198
-0.000110204
0.000586401
-0.000120764
0.000558116
-0.000127981
0.000533271
-0.000123728
0.000511489
-0.00012137
0.000491991
-0.000119043
0.000474299
-0.000116151
0.000460562
-0.000112584
0.000440359
-0.000115026
-6.85014e-05
0.000931236
-7.80807e-05
0.000898686
-8.82142e-05
0.000866655
-9.59492e-05
0.000837992
-9.50646e-05
0.000811994
-9.53723e-05
0.000788318
-9.53666e-05
0.000766814
-9.46475e-05
0.000748539
-9.4308e-05
0.00072616
-9.26466e-05
-5.28073e-05
0.00119572
-4.48746e-05
0.00116118
-5.36786e-05
0.00112653
-6.12957e-05
0.00109479
-6.33238e-05
0.00106525
-6.58378e-05
0.00103785
-6.79676e-05
0.00101263
-6.94293e-05
0.00098934
-7.1013e-05
0.000965568
-6.8875e-05
-4.00461e-05
0.00137499
-1.71855e-05
0.00134446
-2.31495e-05
0.00131235
-2.91846e-05
0.00128171
-3.26903e-05
0.00125218
-3.63074e-05
0.00122395
-3.97328e-05
0.0011972
-4.26793e-05
0.00117183
-4.56467e-05
0.00114721
-4.42558e-05
-2.63842e-05
0.00146039
5.04208e-07
0.00143982
-2.58102e-06
0.001417
-6.36229e-06
0.00139409
-9.77568e-06
0.00137089
-1.31131e-05
0.00134764
-1.64829e-05
0.00132458
-1.96161e-05
0.00130168
-2.27503e-05
0.00127973
-2.23018e-05
-1.46073e-05
0.00146398
9.43932e-06
0.0014538
7.60332e-06
0.0014424
5.04224e-06
0.00143055
2.06876e-06
0.00141801
-5.70798e-07
0.00140474
-3.21132e-06
0.00139073
-5.61225e-06
0.00137593
-7.9473e-06
0.00136163
-8.00452e-06
-6.36916e-06
0.00159304
8.46147e-06
0.00159363
7.01618e-06
0.00159341
5.26507e-06
0.00159223
3.24326e-06
0.00159008
1.57809e-06
0.00158682
5.02248e-08
0.00158238
-1.16782e-06
0.00157664
-2.21139e-06
0.00157122
-2.58175e-06
-2.42111e-06
0.000721466
3.92938e-06
0.00072543
3.05182e-06
0.00072864
2.05553e-06
0.000730898
9.85132e-07
0.000732398
7.79974e-08
0.000733194
-7.4597e-07
0.00073331
-1.28388e-06
0.000732819
-1.71994e-06
0.000732211
-1.9742e-06
-1.74695e-06
0.000333035
1.38955e-06
0.000335256
8.30352e-07
0.000337078
2.33557e-07
0.000338399
-3.35451e-07
0.00033933
-8.53469e-07
0.000339912
-1.32723e-06
0.000340157
-1.52924e-06
0.000340141
-1.70389e-06
0.000339981
-1.81429e-06
-1.57815e-06
0.000154441
1.78025e-07
0.000155501
-2.28867e-07
0.00015637
-6.36388e-07
0.000157003
-9.67943e-07
0.000157451
-1.302e-06
0.000157736
-1.61135e-06
0.000157862
-1.65536e-06
0.00015787
-1.71214e-06
0.000157799
-1.74288e-06
-1.51344e-06
0.000154431
-1.03512e-06
0.000155491
-1.28938e-06
0.000156362
-1.50719e-06
0.000156995
-1.60083e-06
0.000157444
-1.75055e-06
0.000157727
-1.89514e-06
0.000157853
-1.78086e-06
0.00015786
-1.71958e-06
0.000157788
-1.67052e-06
-1.44821e-06
0.000332938
-3.59038e-06
0.000335171
-3.52316e-06
0.000337002
-3.33758e-06
0.000338327
-2.92567e-06
0.000339259
-2.68273e-06
0.000339838
-2.47401e-06
0.000340078
-2.021e-06
0.000340055
-1.69674e-06
0.000339887
-1.50235e-06
-1.27508e-06
0.000720875
-8.2128e-06
0.000724913
-7.56123e-06
0.000728175
-6.59905e-06
0.000730461
-5.21186e-06
0.000731971
-4.19313e-06
0.000732759
-3.2618e-06
0.00073285
-2.11227e-06
0.000732325
-1.17144e-06
0.000731676
-8.53515e-07
-5.76947e-07
0.00159009
-9.49976e-06
0.00159094
-8.41483e-06
0.00159092
-6.58188e-06
0.00158986
-4.14903e-06
0.00158774
-2.07341e-06
0.00158446
1.72739e-08
0.00157994
2.40894e-06
0.00157407
4.70071e-06
0.00156847
4.74555e-06
3.46965e-06
0.00146103
-5.30416e-07
0.00145081
1.80413e-06
0.00143934
4.89502e-06
0.00142741
7.77417e-06
0.00141475
1.05914e-05
0.00140127
1.34957e-05
0.00138702
1.66545e-05
0.00137192
1.98015e-05
0.00135731
1.93568e-05
1.19013e-05
0.00145784
1.74356e-05
0.00143696
2.26791e-05
0.00141381
2.80439e-05
0.00139054
3.10485e-05
0.00136694
3.41895e-05
0.00134324
3.71975e-05
0.0013197
4.01936e-05
0.00129631
4.31936e-05
0.00127388
4.17877e-05
2.39231e-05
0.00137277
4.55105e-05
0.00134175
5.37006e-05
0.00130904
6.07487e-05
0.00127778
6.23163e-05
0.00124757
6.43993e-05
0.00121863
6.61351e-05
0.00119121
6.76143e-05
0.00116521
6.91955e-05
0.00114001
6.69827e-05
3.78887e-05
0.00119335
7.92969e-05
0.00115808
8.89746e-05
0.00112258
9.62459e-05
0.00108999
9.49092e-05
0.0010596
9.4788e-05
0.00103139
9.43488e-05
0.00100544
9.35603e-05
0.000981499
9.31378e-05
0.000957141
9.13411e-05
5.0972e-05
0.000928199
0.000112194
0.000894749
0.000122425
0.000861758
0.000129237
0.000832189
0.000124478
0.000805323
0.000121654
0.000780862
0.00011881
0.000758714
0.000115708
0.000739875
0.000111977
0.000716978
0.000114238
6.68919e-05
0.00061147
0.000581748
0.000552533
0.000526856
0.000504301
0.000484125
0.000465949
0.000451783
0.000431227
)
;

boundaryField
{
    walls
    {
        type            calculated;
        value           nonuniform List<scalar> 
20
(
0.000139004
0.00014956
0.000156266
0.000148573
0.000143152
0.000138541
0.000133843
0.000126321
0.000135229
8.20147e-05
0.000141836
0.000152146
0.000158452
0.000150155
0.00014421
0.000138985
0.000133885
0.000126143
0.000134793
8.07094e-05
)
;
    }
    topInlet
    {
        type            calculated;
        value           nonuniform 0();
    }
    bottomInlet
    {
        type            calculated;
        value           nonuniform 0();
    }
    outlet
    {
        type            calculated;
        value           nonuniform List<scalar> 
20
(
0.000426846
0.000710465
0.000952807
0.00113355
0.00126795
0.00135339
0.00156727
0.000731537
0.000339812
0.000157734
0.000157723
0.000339714
0.000730978
0.00156442
0.00134888
0.00126186
0.00112605
0.000944057
0.000701058
0.00041741
)
;
    }
    frontBack
    {
        type            empty;
        value           nonuniform 0();
    }
    procBoundary3to2
    {
        type            processor;
        value           nonuniform List<scalar> 
20
(
-0.000643998
-0.000963359
-0.00122892
-0.00140268
-0.00147808
-0.00147292
-0.00159206
-0.000716934
-0.000330495
-0.00015323
-0.000153218
-0.000330382
-0.000716253
-0.0015888
-0.00147
-0.0014758
-0.00140085
-0.00122714
-0.000961096
-0.000641112
)
;
    }
}


// ************************************************************************* //
