/*--------------------------------*- C++ -*----------------------------------*\
| =========                 |                                                 |
| \\      /  F ield         | OpenFOAM: The Open Source CFD Toolbox           |
|  \\    /   O peration     | Version:  4.x                                   |
|   \\  /    A nd           | Web:      www.OpenFOAM.org                      |
|    \\/     M anipulation  |                                                 |
\*---------------------------------------------------------------------------*/
FoamFile
{
    version     2.0;
    format      ascii;
    class       volVectorField;
    location    "0.1";
    object      U;
}
// * * * * * * * * * * * * * * * * * * * * * * * * * * * * * * * * * * * * * //

dimensions      [0 1 -1 0 0 0 0];

internalField   nonuniform List<vector> 
200
(
(8.04806 -0.680563 0)
(7.68143 -0.658828 0)
(7.31321 -0.630875 0)
(6.97409 -0.602928 0)
(6.67817 -0.583037 0)
(6.41623 -0.565683 0)
(6.17913 -0.547271 0)
(5.95688 -0.521718 0)
(5.85919 -0.545718 0)
(5.42951 -0.353463 0)
(12.1154 0.149679 0)
(11.7016 0.140234 0)
(11.2855 0.131213 0)
(10.9008 0.122072 0)
(10.5519 0.113771 0)
(10.235 0.107115 0)
(9.94591 0.101081 0)
(9.68528 0.0921294 0)
(9.47713 0.101346 0)
(9.103 0.0842544 0)
(15.5107 -0.21524 0)
(15.076 -0.211205 0)
(14.6296 -0.205082 0)
(14.2094 -0.198796 0)
(13.8174 -0.194354 0)
(13.4531 -0.190457 0)
(13.1161 -0.186006 0)
(12.8056 -0.180662 0)
(12.5296 -0.181854 0)
(12.1891 -0.122701 0)
(17.7769 0.0304965 0)
(17.4023 0.0188454 0)
(16.997 0.00919854 0)
(16.599 0.000750307 0)
(16.2131 -0.00736387 0)
(15.8427 -0.0143579 0)
(15.4904 -0.0203717 0)
(15.1573 -0.0268003 0)
(14.8477 -0.0236892 0)
(14.5124 -0.0036262 0)
(18.8093 -0.0461753 0)
(18.5635 -0.0433849 0)
(18.2827 -0.0424231 0)
(17.9925 -0.0423612 0)
(17.6965 -0.0429488 0)
(17.3983 -0.0443589 0)
(17.1013 -0.0457465 0)
(16.807 -0.0470743 0)
(16.5228 -0.046018 0)
(16.231 -0.0332175 0)
(18.7966 0.0363973 0)
(18.6748 0.0280277 0)
(18.536 0.0190014 0)
(18.3892 0.0107967 0)
(18.2332 0.00420151 0)
(18.0679 -0.000857126 0)
(17.8934 -0.00527506 0)
(17.7087 -0.00965827 0)
(17.5221 -0.0100813 0)
(17.3263 -0.00581756 0)
(18.1393 -0.00159554 0)
(18.1491 -0.00230705 0)
(18.1518 -0.00276851 0)
(18.1442 -0.00326086 0)
(18.1254 -0.00315137 0)
(18.0948 -0.00293007 0)
(18.0513 -0.00369607 0)
(17.993 -0.0046309 0)
(17.9283 -0.00449685 0)
(17.8531 -0.0045922 0)
(17.6539 0.0114548 0)
(17.7583 0.00868701 0)
(17.8465 0.00617139 0)
(17.9119 0.00410487 0)
(17.9575 0.00229861 0)
(17.9854 0.000788248 0)
(17.9967 -0.000702982 0)
(17.9907 -0.00173627 0)
(17.9767 -0.0022014 0)
(17.9519 -0.00203776 0)
(17.5465 0.00359441 0)
(17.6723 0.0023558 0)
(17.7793 0.0012652 0)
(17.8601 0.000333209 0)
(17.919 -0.000512483 0)
(17.9586 -0.00110964 0)
(17.9805 -0.00147663 0)
(17.9844 -0.00180164 0)
(17.98 -0.0020049 0)
(17.9647 -0.00175386 0)
(17.5289 0.00101242 0)
(17.6582 0.000341303 0)
(17.7681 -0.000226145 0)
(17.8514 -0.000710119 0)
(17.9122 -0.00117045 0)
(17.9535 -0.00157595 0)
(17.9769 -0.00169871 0)
(17.9822 -0.00182023 0)
(17.9792 -0.00189536 0)
(17.9652 -0.00164613 0)
(17.5277 -0.000554074 0)
(17.6571 -0.000884065 0)
(17.7671 -0.00114018 0)
(17.8505 -0.00136597 0)
(17.9113 -0.00162092 0)
(17.9526 -0.00186903 0)
(17.976 -0.00183241 0)
(17.9812 -0.00183052 0)
(17.978 -0.00182136 0)
(17.9639 -0.0015798 0)
(17.541 -0.00312215 0)
(17.6676 -0.00290625 0)
(17.7751 -0.00266386 0)
(17.8562 -0.00247869 0)
(17.9152 -0.00241604 0)
(17.9547 -0.00238029 0)
(17.9764 -0.00206541 0)
(17.98 -0.00185318 0)
(17.9753 -0.00171296 0)
(17.9595 -0.00148036 0)
(17.6384 -0.0108931 0)
(17.7449 -0.0090651 0)
(17.8346 -0.00737032 0)
(17.901 -0.00596543 0)
(17.947 -0.00494195 0)
(17.9749 -0.00406108 0)
(17.9858 -0.0028876 0)
(17.979 -0.00200215 0)
(17.9641 -0.00156158 0)
(17.9382 -0.00133081 0)
(18.1041 0.00100908 0)
(18.1172 0.000982572 0)
(18.1226 0.00112326 0)
(18.1168 0.00104142 0)
(18.0988 0.000970165 0)
(18.0682 0.00111918 0)
(18.0241 0.00103683 0)
(17.9646 0.00136322 0)
(17.8981 0.00109009 0)
(17.8206 0.00172341 0)
(18.759 -0.0359184 0)
(18.6368 -0.028908 0)
(18.4974 -0.0214311 0)
(18.3496 -0.0142273 0)
(18.1924 -0.00812699 0)
(18.025 -0.00271244 0)
(17.8477 0.00185974 0)
(17.6595 0.00627652 0)
(17.4689 0.00673694 0)
(17.2687 0.00289583 0)
(18.7783 0.0455733 0)
(18.5289 0.0424015 0)
(18.244 0.0406791 0)
(17.9495 0.0403832 0)
(17.6487 0.0404876 0)
(17.345 0.0411207 0)
(17.042 0.0424885 0)
(16.7414 0.0438582 0)
(16.4509 0.0427651 0)
(16.153 0.0300612 0)
(17.7512 -0.0295087 0)
(17.371 -0.0187891 0)
(16.9586 -0.00964044 0)
(16.5529 -0.00174168 0)
(16.1585 0.00591938 0)
(15.7791 0.0126698 0)
(15.4179 0.0188618 0)
(15.0764 0.0253538 0)
(14.7591 0.0223223 0)
(14.4164 0.00222525 0)
(15.4845 0.216649 0)
(15.0412 0.211513 0)
(14.5845 0.204402 0)
(14.1535 0.197354 0)
(13.7505 0.192203 0)
(13.3753 0.187527 0)
(13.0284 0.182786 0)
(12.7091 0.177299 0)
(12.4254 0.178107 0)
(12.0773 0.118251 0)
(12.0816 -0.149787 0)
(11.657 -0.140031 0)
(11.2288 -0.130627 0)
(10.8322 -0.121169 0)
(10.472 -0.112619 0)
(10.1441 -0.105628 0)
(9.84595 -0.0991785 0)
(9.57783 -0.090108 0)
(9.36292 -0.0989859 0)
(8.98233 -0.0818012 0)
(8.00578 0.690077 0)
(7.62763 0.665773 0)
(7.24734 0.635307 0)
(6.89704 0.605103 0)
(6.59106 0.5832 0)
(6.31923 0.563535 0)
(6.07479 0.543756 0)
(5.84758 0.517435 0)
(5.74368 0.540337 0)
(5.30992 0.345041 0)
)
;

boundaryField
{
    walls
    {
        type            noSlip;
    }
    topInlet
    {
        type            fixedValue;
        value           nonuniform 0();
    }
    bottomInlet
    {
        type            fixedValue;
        value           nonuniform 0();
    }
    outlet
    {
        type            zeroGradient;
    }
    frontBack
    {
        type            empty;
    }
    procBoundary3to2
    {
        type            processor;
        value           nonuniform List<vector> 
20
(
(8.41802 -0.701435 0)
(12.5242 0.159635 0)
(15.9269 -0.218314 0)
(18.1132 0.0428947 0)
(19.0183 -0.0499871 0)
(18.9043 0.0448457 0)
(18.1269 -0.000789778 0)
(17.5366 0.0145346 0)
(17.4047 0.00496271 0)
(17.3831 0.00173518 0)
(17.3817 -0.000221652 0)
(17.3983 -0.00341497 0)
(17.5188 -0.0130055 0)
(18.088 0.0010794 0)
(18.8672 -0.0429483 0)
(18.9908 0.0497237 0)
(18.0918 -0.0408837 0)
(15.9071 0.220939 0)
(12.4995 -0.160015 0)
(8.38586 0.713429 0)
)
;
    }
}


// ************************************************************************* //
