/*--------------------------------*- C++ -*----------------------------------*\
| =========                 |                                                 |
| \\      /  F ield         | OpenFOAM: The Open Source CFD Toolbox           |
|  \\    /   O peration     | Version:  4.x                                   |
|   \\  /    A nd           | Web:      www.OpenFOAM.org                      |
|    \\/     M anipulation  |                                                 |
\*---------------------------------------------------------------------------*/
FoamFile
{
    version     2.0;
    format      ascii;
    class       surfaceScalarField;
    location    "0.4";
    object      alphaPhi;
}
// * * * * * * * * * * * * * * * * * * * * * * * * * * * * * * * * * * * * * //

dimensions      [0 3 -1 0 0 0 0];

internalField   nonuniform List<scalar> 
370
(
2.09549e-198
-1.72831e-256
1.88083e-177
-1.50515e-229
1.3606e-158
-2.9538e-205
1.23792e-141
-2.08535e-183
2.05709e-126
-8.46622e-164
8.58026e-113
-3.12542e-146
1.23058e-100
-1.61907e-130
7.78343e-90
-1.66767e-116
2.84021e-80
-4.942e-104
-5.7465e-93
6.02364e-255
-2.06183e-291
4.39334e-228
-2.95658e-262
7.35838e-204
-7.86308e-236
4.48354e-182
-6.23175e-212
1.58173e-162
-3.6234e-190
5.09317e-145
-2.03111e-170
2.30983e-129
-1.51882e-152
2.08453e-115
-1.94064e-136
5.41803e-103
-5.78187e-122
-5.25457e-109
3.23667e-289
1.1627e-291
2.86022e-260
3.44382e-263
5.48526e-234
-1.56444e-249
3.35038e-210
-4.735e-225
1.56152e-188
-8.21653e-203
7.19809e-169
-1.62949e-182
4.49749e-151
-3.59293e-164
4.83838e-135
-1.71229e-147
1.22118e-120
-2.38526e-132
-1.2059e-118
2.24799e-290
1.42936e-292
6.13642e-262
3.06331e-264
1.37175e-246
5.1653e-249
1.33118e-222
3.43749e-225
1.33093e-200
1.85865e-203
1.78572e-180
1.45676e-184
2.90421e-162
-1.31713e-168
1.05412e-145
-1.10269e-151
1.14663e-130
-2.01615e-136
-1.34754e-122
2.28263e-291
1.7128e-293
4.40932e-263
2.90798e-265
3.20398e-247
1.89901e-249
1.9514e-223
1.05783e-225
9.47897e-202
4.7565e-204
7.10702e-183
3.29323e-185
9.71321e-166
4.14829e-168
3.51248e-149
1.3198e-151
3.77993e-134
1.1438e-136
3.1301e-123
3.27756e-292
3.25164e-294
4.96103e-264
4.67165e-266
-1.76112e-246
-1.60575e-248
-1.49971e-222
-1.33939e-224
-4.53683e-201
-3.99309e-203
-1.15978e-181
-1.00593e-183
-1.81948e-164
-1.55476e-166
5.29183e-148
4.40238e-150
4.91603e-133
3.91223e-135
9.2578e-122
-5.20812e-284
-6.25614e-286
-1.18732e-256
-1.33712e-258
-6.57024e-232
-6.96962e-234
-1.43077e-209
-1.42932e-211
-1.4491e-189
-1.35871e-191
-1.52682e-171
-1.3357e-173
-2.69092e-155
-2.18893e-157
-8.42452e-141
-6.32474e-143
-7.59133e-128
-5.20456e-130
-1.33952e-118
-1.25502e-254
-1.95261e-256
-6.84109e-233
-9.73609e-235
-8.68969e-213
-1.14337e-214
-3.03674e-194
-3.70375e-196
-2.74006e-177
-3.08573e-179
-1.05244e-161
-1.08482e-163
-2.26157e-147
-2.12569e-149
-2.23133e-134
-1.89695e-136
-1.50178e-122
-1.14069e-124
-6.14596e-114
-8.85647e-245
-1.23036e-246
-3.77001e-225
-4.86378e-227
-1.15482e-206
-1.40707e-208
-2.4346e-189
-2.80487e-191
-2.72657e-173
-2.93424e-175
-2.28099e-158
-2.24371e-160
-1.69242e-144
-1.50852e-146
-7.24254e-132
-5.7613e-134
-3.01081e-120
-2.09114e-122
-1.0373e-111
5.7309e-240
2.89813e-239
-1.11697e-222
-9.15039e-225
-1.14337e-204
-9.85206e-207
-1.07591e-187
-9.55381e-190
-6.82984e-172
-5.95881e-174
-3.97958e-157
-3.20036e-159
-2.32228e-143
-1.67987e-145
-8.15708e-131
-5.10791e-133
-3.01922e-119
-1.54773e-121
-6.27079e-111
0.000126406
-1.92723e-06
0.000128005
-1.59878e-06
0.000129291
-1.28636e-06
0.000130316
-1.02424e-06
0.00013116
-8.44259e-07
0.000131921
-7.60881e-07
0.000132634
-7.12669e-07
0.000133334
-7.00481e-07
0.000134055
-7.20677e-07
-8.35431e-07
0.000293177
-8.09099e-06
0.000298806
-7.22753e-06
0.000303974
-6.45532e-06
0.000308735
-5.78501e-06
0.000313128
-5.23728e-06
0.000317185
-4.81803e-06
0.00032093
-4.45756e-06
0.000324376
-4.14582e-06
0.000327527
-3.87188e-06
-3.69094e-06
0.000654127
-1.73004e-05
0.000662821
-1.59224e-05
0.00067103
-1.4664e-05
0.000678776
-1.35307e-05
0.000686084
-1.25455e-05
0.000692972
-1.17062e-05
0.000699449
-1.09346e-05
0.000705504
-1.02002e-05
0.000711116
-9.48468e-06
-8.82706e-06
0.00159627
-1.32172e-05
0.00159266
-1.23116e-05
0.00158967
-1.16744e-05
0.00158741
-1.12709e-05
0.00158595
-1.10917e-05
0.00158532
-1.10727e-05
0.00158545
-1.10675e-05
0.00158621
-1.09606e-05
0.00158742
-1.06868e-05
-1.02092e-05
0.00152501
-9.50769e-06
0.00152066
-7.96049e-06
0.00151576
-6.77527e-06
0.0015104
-5.90701e-06
0.00150464
-5.3401e-06
0.00149855
-4.9835e-06
0.00149215
-4.65887e-06
0.00148534
-4.15565e-06
0.00147802
-3.36776e-06
-2.18916e-06
0.00154696
-7.61892e-06
0.00154431
-5.31481e-06
0.00154076
-3.2217e-06
0.00153617
-1.3195e-06
0.00153039
4.42818e-07
0.00152322
2.18327e-06
0.00151444
4.12288e-06
0.0015038
6.47695e-06
0.00149104
9.39962e-06
1.30448e-05
0.00153139
-2.98847e-06
0.00152537
7.04643e-07
0.00151778
4.37639e-06
0.00150832
8.13476e-06
0.00149681
1.19552e-05
0.00148303
1.5961e-05
0.00146677
2.03882e-05
0.00144775
2.54916e-05
0.00142581
3.1338e-05
3.80135e-05
0.00144686
1.15893e-05
0.00143029
1.72761e-05
0.00141182
2.28442e-05
0.00139127
2.86901e-05
0.0013688
3.44231e-05
0.00134434
4.04232e-05
0.00131789
4.68407e-05
0.0012895
5.38763e-05
0.00125923
6.16113e-05
7.01014e-05
0.00122132
3.71357e-05
0.00119537
4.32287e-05
0.00116886
4.93464e-05
0.00114186
5.56924e-05
0.00111403
6.22516e-05
0.00108529
6.91626e-05
0.00105559
7.65466e-05
0.00102493
8.45385e-05
0.000993385
9.31519e-05
0.00010239
0.000878082
0.000856311
0.000833394
0.000809198
0.000783645
0.000756802
0.000728851
0.000700064
0.000670726
)
;

boundaryField
{
    walls
    {
        type            calculated;
        value           nonuniform List<scalar> 
20
(
1.33788e-199
1.37946e-178
1.14088e-159
1.18249e-142
2.2321e-127
1.05558e-113
1.71276e-101
1.22431e-90
5.04356e-81
1.53021e-72
5.80695e-05
6.49989e-05
7.22636e-05
7.98891e-05
8.78042e-05
9.60057e-05
0.000104497
0.000113325
0.00012249
0.000132004
)
;
    }
    topInlet
    {
        type            calculated;
        value           nonuniform 0();
    }
    bottomInlet
    {
        type            calculated;
        value           nonuniform 0();
    }
    outlet
    {
        type            calculated;
        value           nonuniform 0();
    }
    frontBack
    {
        type            empty;
        value           nonuniform 0();
    }
    procBoundary2to1
    {
        type            processor;
        value           nonuniform List<scalar> 
20
(
-1.11902e-221
-1.17757e-284
-7.08058e-318
-7.57358e-319
-8.86206e-320
-1.26678e-320
6.17541e-314
5.71224e-278
1.55884e-265
-1.62629e-230
-0.000124475
-0.000287013
-0.000644917
-0.00160035
-0.00152872
-0.00154884
-0.00153602
-0.00146144
-0.00124686
-0.000899016
)
;
    }
    procBoundary2to3
    {
        type            processor;
        value           nonuniform List<scalar> 
20
(
7.63678e-72
5.5274e-92
9.42868e-108
4.59392e-117
1.63955e-120
1.26227e-119
-2.18789e-116
-9.34702e-112
-1.82711e-109
-1.84297e-108
0.00013489
0.000330382
0.000716253
0.0015888
0.00147
0.0014758
0.00140085
0.00122714
0.000961096
0.000641112
)
;
    }
}


// ************************************************************************* //
