/*--------------------------------*- C++ -*----------------------------------*\
| =========                 |                                                 |
| \\      /  F ield         | OpenFOAM: The Open Source CFD Toolbox           |
|  \\    /   O peration     | Version:  4.x                                   |
|   \\  /    A nd           | Web:      www.OpenFOAM.org                      |
|    \\/     M anipulation  |                                                 |
\*---------------------------------------------------------------------------*/
FoamFile
{
    version     2.0;
    format      ascii;
    class       surfaceScalarField;
    location    "0.45";
    object      alphaPhi;
}
// * * * * * * * * * * * * * * * * * * * * * * * * * * * * * * * * * * * * * //

dimensions      [0 3 -1 0 0 0 0];

internalField   nonuniform List<scalar> 
1530
(
0
0
0
0
0
0
0
0
0
0
0
0
0
0
0
0
0
0
0
0
0
0
0
0
0
0
0
0
0
0
0
0
0
0
0
0
0
0
0
0
0
0
0
0
0
0
0
0
0
0
0
0
0
0
0
0
0
0
0
0
0
0
0
0
0
0
0
0
0
0
0
0
0
0
0
0
0
0
0
0
0
0
0
0
0
0
0
0
0
0
0
0
0
0
0
0
0
0
0
0
0
0
0
0
0
0
0
0
0
0
0
0
0
0
0
0
0
0
0
0
0
0
0
0
0
0
0
0
0
0
0
0
0
0
0
0
0
0
0
0
0
0
0
0
0
0
0
0
0
0
0
0
0
0
0
0
0
0
0
0
0
0
0
0
0
0
0
0
0
0
0
0
0
0
0
0
0
0
0
0
0
0
0
0
0
0
0
0
2.07508e-322
7.08163e-243
7.04476e-05
-0.000158748
4.49239e-05
-0.000134881
3.40074e-05
-0.000103928
2.82084e-05
-8.50681e-05
2.46694e-05
-7.38596e-05
2.21414e-05
-6.6404e-05
2.00317e-05
-6.01041e-05
1.80295e-05
-5.3074e-05
1.60998e-05
-4.0766e-05
-2.3385e-05
4.19753e-05
0.000279033
-6.75482e-05
0.000223887
-7.97348e-05
0.000189918
-6.9959e-05
0.00016771
-6.28598e-05
0.000152412
-5.85611e-05
0.000140627
-5.46193e-05
0.000130474
-4.99517e-05
0.000121285
-4.38846e-05
0.000116087
-3.55678e-05
-4.51497e-05
0.000137852
0.000778393
-4.68838e-05
0.00074094
-4.22821e-05
0.000706506
-3.55252e-05
0.00067149
-2.78432e-05
0.000637392
-2.44637e-05
0.000605346
-2.25731e-05
0.000575652
-2.02575e-05
0.000549463
-1.76958e-05
0.000531816
-1.79207e-05
-3.50855e-05
0.000521752
0.00173007
-5.05502e-05
0.00172577
-3.79838e-05
0.00172187
-3.16277e-05
0.00171837
-2.43426e-05
0.00171258
-1.86743e-05
0.00170445
-1.44428e-05
0.00169488
-1.06808e-05
0.00168476
-7.57511e-06
0.00167363
-6.79811e-06
-1.1448e-05
0.00165
0.00154247
-5.25271e-05
0.00154413
-3.9639e-05
0.00154475
-3.22541e-05
0.00154622
-2.5807e-05
0.00154755
-2.0011e-05
0.00154831
-1.5202e-05
0.00154877
-1.11367e-05
0.00154904
-7.8459e-06
0.00154808
-5.8406e-06
-5.5287e-06
0.00154216
0.001545
-5.3693e-05
0.00154658
-4.12139e-05
0.00154749
-3.31661e-05
0.00154877
-2.70889e-05
0.00155023
-2.1467e-05
0.00155145
-1.64274e-05
0.00155242
-1.20998e-05
0.00155302
-8.45044e-06
0.00155273
-5.5544e-06
-3.41631e-06
0.00155062
0.00154775
-5.46707e-05
0.00154885
-4.2307e-05
0.00154953
-3.3845e-05
0.00155043
-2.79925e-05
0.00155155
-2.25903e-05
0.0015527
-1.75725e-05
0.00155378
-1.3183e-05
0.00155456
-9.22799e-06
0.00155408
-5.07732e-06
-1.16507e-06
0.00155183
0.00155061
-5.59035e-05
0.00155057
-4.22663e-05
0.00154995
-3.32239e-05
0.00154903
-2.70751e-05
0.00154763
-2.11842e-05
0.00154596
-1.59108e-05
0.00154422
-1.14355e-05
0.00154245
-7.46249e-06
0.00154075
-3.37309e-06
3.47236e-07
0.00153923
0.00154854
-5.32483e-05
0.00154115
-3.48761e-05
0.0015335
-2.55715e-05
0.00152472
-1.82975e-05
0.00151424
-1.0706e-05
0.00150317
-4.84394e-06
0.00149106
6.81856e-07
0.0014779
5.68986e-06
0.00146428
1.02507e-05
1.49908e-05
0.00144964
0.00147754
0.00142081
0.00137308
0.00133048
0.00129292
0.00125935
0.00122984
0.00120424
0.00118257
0.00116695
0
0
0
0
0
0
0
0
0
0
0
0
0
0
6.55398e-310
0
2.9009e-277
0
3.66635e-248
-4.89125e-321
5.47316e-222
-1.65954e-287
2.05168e-198
-3.46423e-257
3.44413e-177
-7.68099e-230
4.25072e-158
-3.04363e-205
5.84754e-141
-3.64528e-183
1.27848e-125
-2.20809e-163
6.32107e-112
-1.1012e-145
9.33264e-100
-6.68486e-130
5.5576e-89
-7.47891e-116
1.75516e-79
-2.18539e-103
4.09295e-71
-2.51082e-92
8.7229e-64
-1.49075e-82
7.80872e-58
-9.78192e-75
7.08459e-55
-1.54105e-71
2.23794e-52
-8.73765e-69
3.67461e-50
-2.68036e-66
5.81383e-26
-7.45688e-26
5.98415e-25
-7.07058e-25
2.87036e-24
-3.16456e-24
-3.32021e-24
0
0
0
0
0
0
0
0
0
0
0
0
0
0
0
0
0
0
2.11302e-319
0
5.78393e-286
0
1.01117e-255
-3.6698e-294
1.91345e-228
-1.99892e-264
6.54388e-204
-1.57681e-237
6.81044e-182
-4.9728e-213
3.5983e-162
-8.51101e-191
1.57101e-144
-1.1369e-170
8.35585e-129
-1.56393e-152
8.19931e-115
-3.13908e-136
2.10207e-102
-1.24366e-121
2.12168e-91
-1.43379e-108
1.10936e-81
-6.06768e-97
6.6239e-74
-1.04202e-87
1.04383e-70
-2.19493e-84
5.84964e-68
-1.80716e-81
1.77586e-65
-8.46166e-79
4.89959e-25
-5.64528e-25
4.64824e-24
-4.86534e-24
1.99483e-23
-1.84646e-23
-1.81851e-23
0
0
0
0
0
0
0
0
0
0
0
0
0
0
0
0
0
0
0
0
0
0
3.55021e-292
4.27459e-295
1.39444e-262
-8.09183e-280
8.47741e-236
-2.57664e-252
2.14305e-211
-2.63532e-227
3.01623e-189
-1.79789e-204
3.36658e-169
-7.79637e-184
3.89918e-151
-4.5545e-165
6.63001e-135
-5.04267e-148
2.23159e-120
-1.34795e-132
2.19569e-107
-1.21305e-118
7.98693e-96
-4.29623e-106
1.22345e-86
-3.90177e-96
2.52824e-83
-6.87578e-93
2.01919e-80
-5.48693e-90
9.19879e-78
-3.17435e-87
6.00988e-24
-6.57441e-24
5.08012e-23
-4.96566e-23
1.93717e-22
-1.6138e-22
-1.57884e-22
0
0
0
0
0
0
0
0
0
0
0
0
0
0
0
0
0
0
0
0
0
0
7.61673e-294
3.80228e-296
7.09515e-277
2.67167e-279
7.2439e-250
1.87058e-252
4.26873e-225
5.96131e-228
1.97027e-202
1.60731e-206
6.3019e-182
-9.50167e-189
2.80385e-163
-9.50238e-170
2.4241e-146
-1.35744e-152
5.13509e-131
-4.79651e-137
3.71686e-117
-6.15385e-123
1.07605e-104
-4.29306e-110
8.35413e-95
-4.5752e-100
1.39197e-91
-4.22684e-97
1.04355e-88
-2.0474e-94
5.70611e-86
-2.25434e-91
1.12922e-22
-1.19497e-22
8.19731e-22
-7.56466e-22
2.72045e-21
-2.0621e-21
-1.99409e-21
0
0
0
0
0
0
0
0
0
0
0
0
0
0
0
0
0
0
0
0
0
0
5.473e-295
3.60948e-297
1.65738e-277
9.82337e-280
1.06239e-250
5.75907e-253
3.03687e-226
1.52389e-228
7.44527e-205
3.44997e-207
7.00706e-186
2.99255e-188
3.02686e-167
1.13733e-169
2.54496e-150
7.70101e-153
5.83591e-135
1.11415e-137
5.22941e-121
1.80533e-124
2.67015e-108
-5.6499e-111
2.2216e-98
-4.4449e-101
1.80289e-95
-2.81816e-98
7.72724e-93
-1.46364e-95
7.62713e-90
-1.96895e-92
3.69913e-21
-3.81862e-21
2.16858e-20
-1.87432e-20
6.05644e-20
-4.09407e-20
-3.91357e-20
0
0
0
0
0
0
0
0
0
0
0
0
0
0
0
0
0
0
0
0
0
0
6.1578e-296
5.79861e-298
-6.52881e-277
-5.95284e-279
-5.73523e-250
-5.12212e-252
-9.13039e-226
-8.03611e-228
-7.45556e-204
-6.46656e-206
-2.10662e-184
-1.80013e-186
6.85458e-166
5.70246e-168
4.51173e-149
3.59049e-151
5.52144e-134
4.04954e-136
2.21857e-120
1.43046e-122
3.18262e-108
1.66453e-110
1.00799e-98
3.52452e-101
4.1251e-96
5.96879e-99
1.58083e-93
-1.67533e-95
1.67162e-90
-1.76e-92
2.70419e-19
-2.74237e-19
1.146e-18
-9.02142e-19
2.54654e-18
-1.48146e-18
-1.25436e-18
0
0
0
0
0
0
0
0
0
0
0
0
0
0
0
0
0
0
0
0
-4.01833e-319
-4.82702e-321
-2.32884e-288
-2.62266e-290
-1.58924e-260
-1.68584e-262
-2.19287e-235
-2.19064e-237
-7.63473e-213
-7.1585e-215
-1.58122e-192
-1.38329e-194
-3.28809e-174
-2.6747e-176
-7.66309e-158
-5.7531e-160
-3.39319e-143
-2.32634e-145
-3.31429e-130
-2.02915e-132
9.96706e-118
5.29402e-120
1.62414e-105
7.15059e-108
1.84771e-96
6.10598e-99
4.09545e-94
8.34244e-97
4.57606e-92
4.52462e-95
8.59716e-90
1.98631e-94
7.73976e-17
-7.76719e-17
1.82963e-16
-1.46729e-16
2.98045e-16
-2.56396e-16
-2.70834e-16
0
0
0
0
0
0
0
0
0
0
0
0
0
0
0
0
0
0
-2.50582e-312
-4.3256e-314
-4.43089e-286
-6.89376e-288
-1.19878e-261
-1.70608e-263
-4.78941e-239
-6.30177e-241
-3.43194e-218
-4.18576e-220
-4.24109e-199
-4.77612e-201
-1.52365e-181
-1.57054e-183
-2.12968e-165
-2.00173e-167
-9.73536e-151
-8.27645e-153
-2.21258e-137
-1.6806e-139
-3.47598e-125
-2.28557e-127
-4.0785e-114
-2.22131e-116
-2.20071e-104
-9.25831e-107
3.36943e-96
9.50654e-99
3.62929e-96
3.94847e-96
6.57596e-96
4.59627e-95
1.87099e-13
-1.87099e-13
4.77267e-13
-4.45295e-13
8.04989e-13
-7.56729e-13
9.77261e-13
-9.84614e-13
-9.64344e-13
0
0
0
0
0
0
0
0
0
0
0
0
0
0
0
0
-3.95253e-323
0
-1.7074e-298
-2.60916e-300
-3.76869e-275
-5.23555e-277
-4.51595e-253
-5.82614e-255
-2.78825e-232
-3.3973e-234
-8.52336e-213
-9.81963e-215
-1.00159e-194
-1.07788e-196
-6.40197e-178
-6.29732e-180
-2.64428e-162
-2.35694e-164
-4.6545e-148
-3.70257e-150
-5.96751e-135
-4.14469e-137
-8.55502e-123
-4.8569e-125
-9.64219e-112
-4.02308e-114
-2.31422e-101
-5.73187e-104
-1.12191e-92
-7.77718e-96
1.53141e-10
-1.53141e-10
6.39531e-10
-4.89548e-10
1.43889e-09
-8.0964e-10
2.21254e-09
-7.91737e-10
3.06097e-09
-8.67878e-10
3.62581e-09
-5.8489e-10
1.4231e-09
1.82146e-243
6.11838e-243
4.4782e-244
1.37364e-243
1.11421e-244
3.36399e-244
2.72923e-245
8.41287e-245
6.46834e-246
2.08239e-245
1.46624e-246
5.0021e-246
3.15275e-247
1.15097e-246
6.38971e-248
2.51378e-247
1.21435e-248
5.17536e-248
2.15493e-249
9.98861e-249
7.59379e-259
3.8402e-258
-2.38733e-250
-1.95574e-252
-4.2466e-230
-3.65916e-232
-5.19466e-211
-4.61272e-213
-3.21413e-193
-2.80423e-195
-1.36593e-176
-1.09847e-178
-4.28627e-161
-3.10056e-163
-6.0409e-147
-3.78277e-149
-6.76812e-134
-3.46951e-136
-9.67594e-122
-3.29228e-124
-1.11534e-110
-1.28564e-113
1.29291e-07
-1.29291e-07
4.90483e-07
-3.61192e-07
1.0435e-06
-5.53173e-07
1.79391e-06
-7.50891e-07
2.73267e-06
-9.39559e-07
3.70434e-06
-9.72445e-07
4.70949e-06
-1.006e-06
5.76109e-06
-1.05217e-06
-9.62889e-07
6.75238e-05
-2.55486e-05
8.20948e-05
-1.4571e-05
9.25901e-05
-1.04953e-05
0.000100659
-8.06898e-06
0.000106959
-6.29963e-06
0.000111989
-5.03002e-06
0.000116082
-4.09298e-06
0.000119436
-3.35388e-06
0.000122187
-2.75183e-06
0.000124475
-2.28742e-06
0.000126406
-1.92723e-06
0.000128005
-1.59878e-06
0.000129291
-1.28636e-06
0.000130316
-1.02424e-06
0.00013116
-8.44259e-07
0.000131921
-7.60881e-07
0.000132634
-7.12669e-07
0.000133334
-7.00481e-07
0.000134055
-7.20677e-07
0.00013489
-8.35431e-07
0.000135911
-1.03512e-06
0.000137071
-1.28939e-06
0.000138217
-1.50722e-06
0.000139265
-1.60084e-06
0.000140265
-1.7505e-06
0.00014122
-1.89529e-06
0.000142026
-1.77838e-06
0.000142725
-1.70486e-06
0.00014336
-1.68696e-06
-1.51577e-06
0.000166566
-5.42633e-05
0.000192535
-4.05394e-05
0.000212581
-3.0542e-05
0.000228977
-2.44641e-05
0.000242588
-1.9911e-05
0.000254069
-1.65113e-05
0.000263944
-1.3968e-05
0.000272572
-1.19815e-05
0.000280198
-1.03779e-05
0.000287013
-9.10241e-06
0.000293177
-8.09099e-06
0.000298806
-7.22753e-06
0.000303974
-6.45532e-06
0.000308735
-5.78502e-06
0.000313128
-5.23728e-06
0.000317185
-4.81803e-06
0.00032093
-4.45756e-06
0.000324376
-4.14582e-06
0.000327527
-3.87188e-06
0.000330382
-3.69094e-06
0.000332938
-3.59038e-06
0.000335171
-3.5232e-06
0.000337002
-3.33776e-06
0.000338327
-2.92567e-06
0.000339257
-2.68114e-06
0.000339833
-2.47077e-06
0.000340075
-2.02068e-06
0.000340068
-1.6978e-06
0.000339919
-1.53824e-06
-1.35186e-06
0.000527869
-6.03802e-05
0.000543203
-5.58738e-05
0.000558776
-4.61152e-05
0.000573705
-3.93929e-05
0.000587937
-3.41429e-05
0.000601144
-2.97182e-05
0.000613337
-2.61616e-05
0.000624633
-2.32772e-05
0.000635125
-2.08706e-05
0.000644917
-1.88941e-05
0.000654127
-1.73004e-05
0.000662821
-1.59224e-05
0.00067103
-1.4664e-05
0.000678776
-1.35307e-05
0.000686084
-1.25455e-05
0.000692972
-1.17062e-05
0.000699449
-1.09346e-05
0.000705504
-1.02002e-05
0.000711116
-9.48468e-06
0.000716253
-8.82706e-06
0.000720875
-8.21279e-06
0.000724913
-7.56132e-06
0.000728175
-6.59952e-06
0.000730461
-5.21201e-06
0.000731969
-4.18864e-06
0.000732748
-3.25055e-06
0.000732842
-2.11416e-06
0.000732353
-1.20863e-06
0.000731746
-9.31962e-07
-6.78447e-07
0.00163871
-4.90995e-05
0.00163034
-4.75003e-05
0.00162595
-4.17208e-05
0.00162249
-3.59385e-05
0.00161938
-3.10279e-05
0.00161625
-2.65924e-05
0.00161278
-2.26878e-05
0.00160889
-1.93863e-05
0.00160467
-1.66531e-05
0.00160035
-1.4577e-05
0.00159627
-1.32172e-05
0.00159266
-1.23116e-05
0.00158967
-1.16744e-05
0.00158741
-1.12709e-05
0.00158595
-1.10917e-05
0.00158532
-1.10727e-05
0.00158545
-1.10675e-05
0.00158621
-1.09606e-05
0.00158742
-1.06868e-05
0.0015888
-1.02092e-05
0.00159009
-9.49973e-06
0.00159094
-8.41497e-06
0.00159092
-6.58301e-06
0.00158986
-4.15017e-06
0.00158774
-2.06337e-06
0.00158443
5.09221e-08
0.00157991
2.41049e-06
0.00157413
4.57313e-06
0.00156865
4.54717e-06
3.28551e-06
0.00153869
-4.56288e-05
0.00153611
-4.49169e-05
0.0015355
-4.11091e-05
0.00153568
-3.61233e-05
0.00153587
-3.12148e-05
0.00153579
-2.65176e-05
0.0015352
-2.20961e-05
0.00153388
-1.80647e-05
0.00153172
-1.44878e-05
0.00152872
-1.15802e-05
0.00152501
-9.50769e-06
0.00152066
-7.96049e-06
0.00151576
-6.77527e-06
0.0015104
-5.90701e-06
0.00150464
-5.3401e-06
0.00149855
-4.9835e-06
0.00149215
-4.65887e-06
0.00148534
-4.15565e-06
0.00147802
-3.36776e-06
0.00147
-2.18916e-06
0.00146103
-5.30377e-07
0.00145081
1.80394e-06
0.00143934
4.89327e-06
0.00142742
7.77162e-06
0.00141475
1.06058e-05
0.00140124
1.35547e-05
0.00138697
1.66821e-05
0.00137194
1.96021e-05
0.00135753
1.89624e-05
1.15612e-05
0.00154889
-4.38923e-05
0.00154766
-4.36906e-05
0.00154762
-4.10657e-05
0.00154838
-3.68907e-05
0.00154934
-3.21725e-05
0.00155021
-2.7388e-05
0.00155078
-2.26696e-05
0.00155081
-1.80904e-05
0.00155014
-1.38195e-05
0.00154884
-1.02819e-05
0.00154696
-7.61892e-06
0.00154431
-5.31481e-06
0.00154076
-3.2217e-06
0.00153617
-1.3195e-06
0.00153039
4.42818e-07
0.00152322
2.18327e-06
0.00151444
4.12288e-06
0.0015038
6.47695e-06
0.00149104
9.39962e-06
0.0014758
1.30448e-05
0.00145784
1.74356e-05
0.00143696
2.2679e-05
0.00141381
2.80413e-05
0.00139054
3.10423e-05
0.00136695
3.42039e-05
0.00134321
3.72912e-05
0.00131959
4.03011e-05
0.0012962
4.29943e-05
0.00127401
4.11468e-05
2.33535e-05
0.00155032
-4.23827e-05
0.00154844
-4.18093e-05
0.00154713
-3.97519e-05
0.00154626
-3.603e-05
0.00154554
-3.14523e-05
0.00154477
-2.66128e-05
0.00154376
-2.16583e-05
0.00154217
-1.65037e-05
0.00153963
-1.12811e-05
0.00153602
-6.67419e-06
0.00153139
-2.98847e-06
0.00152537
7.04644e-07
0.00151778
4.37639e-06
0.00150832
8.13476e-06
0.00149681
1.19552e-05
0.00148303
1.5961e-05
0.00146677
2.03882e-05
0.00144775
2.54916e-05
0.00142581
3.1338e-05
0.00140085
3.80135e-05
0.00137277
4.55107e-05
0.00134175
5.37007e-05
0.00130904
6.07459e-05
0.00127778
6.23047e-05
0.00124759
6.44008e-05
0.00121863
6.62512e-05
0.00119105
6.78722e-05
0.00116487
6.91805e-05
0.00113981
6.62078e-05
3.70837e-05
0.00153416
-3.73133e-05
0.00152878
-3.64233e-05
0.00152281
-3.37857e-05
0.00151621
-2.94254e-05
0.00150919
-2.44386e-05
0.00150163
-1.90445e-05
0.00149349
-1.35248e-05
0.00148441
-7.41975e-06
0.00147385
-7.19442e-07
0.00146144
5.73162e-06
0.00144686
1.15893e-05
0.00143029
1.72761e-05
0.00141182
2.28442e-05
0.00139127
2.86901e-05
0.0013688
3.44231e-05
0.00134434
4.04232e-05
0.00131789
4.68407e-05
0.0012895
5.38763e-05
0.00125923
6.16113e-05
0.00122714
7.01014e-05
0.00119335
7.9297e-05
0.00115808
8.89752e-05
0.00112258
9.62443e-05
0.00108999
9.48909e-05
0.00105964
9.47578e-05
0.00103144
9.44513e-05
0.0010053
9.40073e-05
0.000980944
9.3539e-05
0.000956422
9.07293e-05
5.00868e-05
0.00143434
-2.20143e-05
0.00141777
-1.98581e-05
0.00140056
-1.65744e-05
0.001382
-1.08616e-05
0.00136309
-5.53418e-06
0.00134286
1.18588e-06
0.00132066
8.67856e-06
0.00129683
1.64102e-05
0.00127213
2.39767e-05
0.00124686
3.09999e-05
0.00122132
3.71357e-05
0.00119537
4.32287e-05
0.00116886
4.93464e-05
0.00114186
5.56924e-05
0.00111403
6.22516e-05
0.00108529
6.91626e-05
0.00105559
7.65466e-05
0.00102493
8.45385e-05
0.000993385
9.31519e-05
0.000961096
0.00010239
0.000928199
0.000112194
0.000894749
0.000122425
0.000861754
0.00012924
0.00083218
0.000124465
0.00080536
0.000121578
0.000781034
0.000118777
0.000758778
0.000116263
0.000739195
0.000113122
0.000715673
0.000114252
6.60387e-05
0.00113566
0.00110497
0.00107379
0.00104379
0.00101466
0.000987552
0.000962942
0.000940493
0.000919494
0.000899016
0.000878082
0.000856311
0.000833394
0.000809198
0.000783645
0.000756802
0.000728851
0.000700064
0.000670726
0.000641112
0.00061147
0.000581749
0.000552528
0.000526829
0.000504299
0.000484369
0.000466401
0.000451492
0.000429737
)
;

boundaryField
{
    walls
    {
        type            calculated;
        value           nonuniform List<scalar> 
100
(
0
0
0
0
0
0
0
0
5.43472e-322
-2.95206e-244
0
0
0
0
0
0
0
0
0
0
0
0
0
0
0
0
0
2.59707e-311
1.36306e-278
2.02143e-249
3.49438e-223
1.50478e-199
2.88794e-178
4.06039e-159
6.34502e-142
1.57284e-126
8.79792e-113
1.468e-100
9.86901e-90
3.51689e-80
9.248e-72
2.22475e-64
2.18649e-58
1.97405e-55
6.25903e-53
1.03207e-50
1.64304e-26
1.66781e-25
8.92608e-25
9.97828e-25
9.28204e-06
1.08262e-05
1.46063e-05
1.91418e-05
2.35902e-05
2.82985e-05
3.32885e-05
3.88596e-05
4.49759e-05
5.14782e-05
5.80695e-05
6.49989e-05
7.22636e-05
7.98891e-05
8.78042e-05
9.60057e-05
0.000104497
0.000113325
0.00012249
0.000132004
0.000141836
0.000152146
0.000158461
0.000150164
0.000144108
0.000138707
0.000134231
0.000128032
0.000136007
8.03443e-05
0.000262546
0.000160404
0.000114844
9.08671e-05
7.73986e-05
6.8932e-05
6.22138e-05
5.50762e-05
4.26957e-05
-2.49046e-06
2.22545e-05
2.18579e-05
2.21561e-05
2.42984e-05
2.68575e-05
2.87223e-05
3.01924e-05
3.12943e-05
3.19253e-05
3.0602e-05
)
;
    }
    topInlet
    {
        type            calculated;
        value           nonuniform List<scalar> 10(-0.000174246 -0.000370233 -0.000799057 -0.0017264 -0.00154049 -0.00154384 -0.00154678 -0.00154938 -0.00155119 -0.00155304);
    }
    bottomInlet
    {
        type            calculated;
        value           uniform 0;
    }
    outlet
    {
        type            calculated;
        value           nonuniform List<scalar> 
20
(
5.19275e-24
3.48131e-23
3.33416e-22
4.55666e-21
9.77061e-20
3.68858e-18
3.12022e-16
6.8207e-13
2.17708e-09
6.72542e-06
0.000143913
0.000339756
0.000731073
0.00156469
0.00134925
0.00126222
0.00112608
0.000943419
0.000699721
0.000415431
)
;
    }
    frontBack
    {
        type            empty;
        value           nonuniform 0();
    }
}


// ************************************************************************* //
