/*--------------------------------*- C++ -*----------------------------------*\
| =========                 |                                                 |
| \\      /  F ield         | OpenFOAM: The Open Source CFD Toolbox           |
|  \\    /   O peration     | Version:  4.x                                   |
|   \\  /    A nd           | Web:      www.OpenFOAM.org                      |
|    \\/     M anipulation  |                                                 |
\*---------------------------------------------------------------------------*/
FoamFile
{
    version     2.0;
    format      ascii;
    class       volScalarField;
    location    "0.45";
    object      alpha.upper;
}
// * * * * * * * * * * * * * * * * * * * * * * * * * * * * * * * * * * * * * //

dimensions      [0 0 0 0 0 0 0];

internalField   nonuniform List<scalar> 
800
(
0
0
0
0
1.15611e-321
1.16599e-321
1.17588e-321
1.18576e-321
1.18576e-321
1.19564e-321
0
0
0
0
1.10671e-321
1.10671e-321
1.10671e-321
1.11659e-321
1.11659e-321
1.12647e-321
0
0
0
0
1.09683e-321
1.09683e-321
1.09683e-321
1.10671e-321
1.10671e-321
1.10671e-321
0
0
0
0
1.08694e-321
1.08694e-321
1.09683e-321
1.09683e-321
1.09683e-321
1.09683e-321
0
0
0
0
1.08694e-321
1.08694e-321
1.08694e-321
1.09683e-321
1.09683e-321
1.09683e-321
0
0
0
0
1.08694e-321
1.08694e-321
1.08694e-321
1.09683e-321
1.09683e-321
1.09683e-321
0
0
0
0
9.68369e-322
9.7825e-322
9.7825e-322
9.88131e-322
9.88131e-322
9.88131e-322
0
0
0
0
2.19365e-321
2.23318e-321
2.2727e-321
2.30235e-321
2.33199e-321
2.33199e-321
0
0
0
0
1.04347e-320
1.06521e-320
1.08497e-320
1.10473e-320
1.12647e-320
1.12054e-320
0
0
0
0
2.2648e-320
2.32408e-320
2.37349e-320
2.42586e-320
1.26013e-317
1.67913e-238
1
1
1
1
1
1
1
1
1
1
1
1
1
1
1
1
1
1
1
1
1
1
1
1
1
1
1
1
1
1
1
1
1
1
1
1
1
1
1
1
1
1
1
1
1
1
1
1
1
1
1
1
1
1
1
1
1
1
1
1
1
1
1
1
1
1
1
1
1
1
1
1
1
1
1
1
1
1
1
1
1
1
1
1
1
1
1
1
1
1
1
1
1
1
1
1
1
1
1
1
1.54148e-321
1.45255e-321
1.36362e-321
1.26481e-321
1.17588e-321
2.17389e-321
2.01579e-321
6.96272e-307
3.15324e-274
4.07686e-245
6.23146e-219
2.39547e-195
4.13191e-174
5.25188e-155
7.45893e-138
1.68794e-122
8.66038e-109
1.33017e-96
8.25936e-86
2.72541e-76
6.65306e-68
1.48753e-60
1.39913e-54
1.32859e-51
4.37538e-49
7.46506e-47
1.22453e-22
1.30017e-21
6.54156e-21
1.22242e-20
1.40315e-321
1.3241e-321
1.24505e-321
1.16599e-321
1.08694e-321
1.00789e-321
9.38725e-322
1.73911e-321
1.60077e-321
1.69242e-316
4.73066e-283
8.45138e-253
1.63578e-225
5.72767e-201
6.11008e-179
3.31353e-159
1.4871e-141
8.14329e-126
8.24029e-112
2.18202e-99
2.27834e-88
1.23442e-78
7.64311e-71
1.24565e-67
7.20372e-65
2.25222e-62
6.38894e-22
6.21566e-21
2.75221e-20
4.90939e-20
1.36362e-321
1.28457e-321
1.20552e-321
1.12647e-321
1.04742e-321
9.7825e-322
9.09081e-322
8.39912e-322
1.55137e-321
1.42291e-321
1.30433e-321
2.48061e-289
9.87098e-260
6.0895e-233
1.56472e-208
2.24224e-186
2.55274e-166
3.02125e-148
5.25945e-132
1.81589e-117
1.83629e-104
6.87829e-93
1.08603e-83
2.30934e-80
1.89544e-77
8.86284e-75
5.93574e-21
5.13787e-20
2.00777e-19
3.50161e-19
1.36362e-321
1.28457e-321
1.20552e-321
1.12647e-321
1.04742e-321
9.68369e-322
8.99199e-322
8.3003e-322
1.54148e-321
1.41303e-321
1.29445e-321
4.99227e-291
4.67322e-274
4.80048e-247
2.85027e-222
1.32768e-199
4.29317e-179
1.93492e-160
1.69832e-143
3.66092e-128
2.70319e-114
8.0036e-102
6.36579e-92
1.08602e-88
8.33371e-86
4.66207e-83
9.43348e-20
6.99742e-19
2.37178e-18
4.01957e-18
1.36362e-321
1.28457e-321
1.20552e-321
1.12647e-321
1.04742e-321
9.68369e-322
8.99199e-322
8.3003e-322
1.5316e-321
1.40315e-321
1.29445e-321
3.54277e-292
1.07523e-274
6.91219e-248
1.98308e-223
4.88392e-202
4.62233e-183
2.01049e-164
1.70454e-147
3.94831e-132
3.58083e-118
1.8545e-105
1.56782e-95
1.29324e-92
5.63663e-90
5.65975e-87
2.79293e-18
1.66614e-17
4.73203e-17
7.70334e-17
1.36362e-321
1.28457e-321
1.20552e-321
1.12647e-321
1.04742e-321
9.68369e-322
8.99199e-322
8.3003e-322
1.54148e-321
1.41303e-321
1.29445e-321
4.04424e-293
-4.3012e-274
-3.79131e-247
-6.05806e-223
-4.96643e-201
-1.40922e-181
4.60606e-163
3.04661e-146
3.74863e-131
1.51543e-117
2.18918e-105
6.98832e-96
2.88357e-93
1.11483e-90
1.19001e-87
1.94451e-16
8.3288e-16
1.86989e-15
2.72461e-15
1.24505e-321
1.16599e-321
1.08694e-321
1.02766e-321
9.48606e-322
8.79437e-322
8.10268e-322
7.5098e-322
1.38338e-321
-1.27469e-321
-2.50909e-316
-1.45748e-285
-9.96524e-258
-1.3771e-232
-4.7995e-210
-9.94574e-190
-2.06839e-171
-4.81916e-155
-2.13273e-140
-2.08176e-127
6.25662e-115
1.01914e-102
1.15959e-93
2.57214e-91
2.87788e-89
5.41794e-87
2.51737e-14
2.75935e-14
2.69746e-14
2.77237e-14
3.00392e-321
2.78653e-321
2.57902e-321
2.3814e-321
2.19365e-321
2.01579e-321
3.69561e-321
-3.37941e-321
-3.08297e-321
-3.87331e-309
-6.75465e-283
-1.804e-258
-7.12095e-236
-5.04555e-215
-6.17006e-196
-2.19509e-178
-3.04037e-162
-1.37817e-147
-3.108e-134
-4.8484e-122
-5.65307e-111
-3.03366e-101
4.62428e-93
4.62599e-93
5.02147e-93
-1.74401e-12
-4.65192e-12
1.10905e-13
1.53223e-13
1.68075e-13
7.1936e-321
6.52167e-321
5.89914e-321
5.35567e-321
9.74297e-321
8.8833e-321
-8.10268e-321
-7.39122e-321
-1.41342e-319
-5.94142e-295
-1.28404e-271
-1.50985e-249
-9.16455e-229
-2.75856e-209
-3.19643e-191
-2.01713e-174
-8.23501e-159
-1.43425e-144
-1.82127e-131
-2.58855e-119
-2.89525e-108
-6.90282e-98
-3.32832e-89
-4.84744e-10
-1.83789e-09
-3.92632e-09
-5.87135e-09
5.30774e-10
8.5939e-10
9.31931e-10
1.09423e-247
1.85723e-248
3.59726e-249
7.44345e-250
1.54368e-250
3.11918e-251
6.0173e-252
1.0894e-252
1.86385e-253
3.09872e-254
1.04586e-263
-1.72846e-246
-3.02005e-226
-3.63506e-207
-2.21647e-189
-9.29507e-173
-2.88176e-157
-4.01715e-143
-4.45638e-130
-6.31466e-118
-7.22177e-107
0.000435895
0.00201342
0.00487445
0.0089557
0.0143786
0.0203006
0.026643
0.0326461
0.0426612
0.995259
0.990024
0.984478
0.979105
0.973733
0.968271
0.96264
0.956711
0.950377
0.94379
0.937227
0.930491
0.92336
0.915866
0.908289
0.901193
0.894791
0.889225
0.884685
0.881176
0.880045
0.880926
0.882831
0.885584
0.889054
0.893301
0.897647
0.902076
0.906099
0.912499
1
1
1
1
1
1
1
1
1
1
1
1
1
1
1
1
1
1
1
1
1
1
1
1
1
1
1
1
1
1
1
1
1
1
1
1
1
1
1
1
1
1
1
1
1
1
1
1
1
1
1
1
1
1
1
1
1
1
1
1
1
1
1
1
1
1
1
1
1
1
1
1
1
1
1
1
1
1
1
1
1
1
1
1
1
1
1
1
1
1
1
1
1
1
1
1
1
1
1
1
1
1
1
1
1
1
1
1
1
1
1
1
1
1
1
1
1
1
1
1
1
1
1
1
1
1
1
1
1
1
1
1
1
1
1
1
1
1
1
1
1
1
1
1
1
1
1
1
1
1
1
1
1
1
1
1
1
1
1
1
1
1
1
1
1
1
1
1
1
1
1
1
1
1
1
1
1
1
1
1
1
1
1
1
1
1
1
1
1
1
1
1
1
1
1
1
1
1
1
1
1
1
1
1
1
1
1
1
1
1
1
1
1
1
1
1
1
1
1
1
1
1
1
1
1
1
1
1
1
1
1
1
1
1
1
1
1
1
1
1
1
1
1
1
1
1
1
1
1
1
1
1
1
1
1
1
1
1
1
1
1
1
1
1
1
1
1
1
1
1
)
;

boundaryField
{
    walls
    {
        type            zeroGradient;
    }
    topInlet
    {
        type            fixedValue;
        value           uniform 1;
    }
    bottomInlet
    {
        type            fixedValue;
        value           uniform 0;
    }
    outlet
    {
        type            inletOutlet;
        inletValue      uniform 0;
        value           nonuniform List<scalar> 
20
(
1.22242e-20
4.90939e-20
3.50161e-19
4.01957e-18
7.70334e-17
2.72461e-15
2.77237e-14
1.68075e-13
9.31931e-10
0.0426612
0.912499
1
1
1
1
1
1
1
1
1
)
;
    }
    frontBack
    {
        type            empty;
    }
}


// ************************************************************************* //
