/*--------------------------------*- C++ -*----------------------------------*\
| =========                 |                                                 |
| \\      /  F ield         | OpenFOAM: The Open Source CFD Toolbox           |
|  \\    /   O peration     | Version:  4.x                                   |
|   \\  /    A nd           | Web:      www.OpenFOAM.org                      |
|    \\/     M anipulation  |                                                 |
\*---------------------------------------------------------------------------*/
FoamFile
{
    version     2.0;
    format      ascii;
    class       surfaceScalarField;
    location    "0.25";
    object      alphaPhi;
}
// * * * * * * * * * * * * * * * * * * * * * * * * * * * * * * * * * * * * * //

dimensions      [0 3 -1 0 0 0 0];

internalField   nonuniform List<scalar> 
1530
(
0
0
0
0
0
0
0
0
0
0
0
0
0
0
0
0
0
0
0
0
0
0
0
0
0
0
0
0
0
0
0
0
0
0
0
0
0
0
0
0
0
0
0
0
0
0
0
0
0
0
0
0
0
0
0
0
0
0
0
0
0
0
0
0
0
0
0
0
0
0
0
0
0
0
0
0
0
0
0
0
0
0
0
0
0
0
0
0
0
0
0
0
0
0
0
0
0
0
0
0
0
0
0
0
0
0
0
0
0
0
0
0
0
0
0
0
0
0
0
0
0
0
0
0
0
0
0
0
0
0
0
0
0
0
0
0
0
0
0
0
0
0
0
0
0
0
0
0
0
0
0
0
0
0
0
0
0
0
6.0029e-321
6.96138e-320
0
0
0
0
0
0
0
0
0
0
0
0
1.8379e-306
8.37156e-307
6.84735e-262
2.96951e-262
2.22838e-240
7.813e-241
4.27684e-237
2.48541e-236
0
0
0
0
0
1.70411e-316
3.78344e-294
1.16219e-246
1.20288e-213
2.29716e-167
7.04476e-05
-0.000158748
4.49239e-05
-0.000134881
3.40074e-05
-0.000103928
2.82084e-05
-8.50681e-05
2.46694e-05
-7.38596e-05
2.21414e-05
-6.6404e-05
2.00317e-05
-6.01041e-05
1.80295e-05
-5.3074e-05
1.60998e-05
-4.0766e-05
-2.3385e-05
4.19753e-05
0.000279033
-6.75482e-05
0.000223887
-7.97348e-05
0.000189918
-6.9959e-05
0.00016771
-6.28598e-05
0.000152412
-5.85611e-05
0.000140627
-5.46193e-05
0.000130474
-4.99517e-05
0.000121285
-4.38846e-05
0.000116087
-3.55678e-05
-4.51497e-05
0.000137852
0.000778393
-4.68838e-05
0.00074094
-4.22821e-05
0.000706506
-3.55252e-05
0.00067149
-2.78432e-05
0.000637392
-2.44637e-05
0.000605346
-2.25731e-05
0.000575652
-2.02575e-05
0.000549463
-1.76958e-05
0.000531816
-1.79207e-05
-3.50855e-05
0.000521752
0.00173007
-5.05502e-05
0.00172577
-3.79838e-05
0.00172187
-3.16277e-05
0.00171837
-2.43426e-05
0.00171258
-1.86743e-05
0.00170445
-1.44428e-05
0.00169488
-1.06808e-05
0.00168476
-7.57511e-06
0.00167363
-6.79811e-06
-1.1448e-05
0.00165
0.00154247
-5.25271e-05
0.00154413
-3.9639e-05
0.00154475
-3.22541e-05
0.00154622
-2.5807e-05
0.00154755
-2.0011e-05
0.00154831
-1.5202e-05
0.00154877
-1.11367e-05
0.00154904
-7.8459e-06
0.00154808
-5.8406e-06
-5.5287e-06
0.00154216
0.001545
-5.3693e-05
0.00154658
-4.12139e-05
0.00154749
-3.31661e-05
0.00154877
-2.70889e-05
0.00155023
-2.1467e-05
0.00155145
-1.64274e-05
0.00155242
-1.20998e-05
0.00155302
-8.45044e-06
0.00155273
-5.5544e-06
-3.41631e-06
0.00155062
0.00154775
-5.46707e-05
0.00154885
-4.2307e-05
0.00154953
-3.3845e-05
0.00155043
-2.79925e-05
0.00155155
-2.25903e-05
0.0015527
-1.75725e-05
0.00155378
-1.3183e-05
0.00155456
-9.22799e-06
0.00155408
-5.07732e-06
-1.16507e-06
0.00155183
0.00155061
-5.59035e-05
0.00155057
-4.22663e-05
0.00154995
-3.32239e-05
0.00154903
-2.70751e-05
0.00154763
-2.11842e-05
0.00154596
-1.59108e-05
0.00154422
-1.14355e-05
0.00154245
-7.46249e-06
0.00154075
-3.37309e-06
3.47236e-07
0.00153923
0.00154854
-5.32483e-05
0.00154115
-3.48761e-05
0.0015335
-2.55715e-05
0.00152472
-1.82975e-05
0.00151424
-1.0706e-05
0.00150317
-4.84394e-06
0.00149106
6.81856e-07
0.0014779
5.68986e-06
0.00146428
1.02507e-05
1.49908e-05
0.00144964
0.00147754
0.00142081
0.00137308
0.00133048
0.00129292
0.00125935
0.00122984
0.00120424
0.00118257
0.00116695
0
0
0
0
5.39529e-318
8.83291e-320
7.35299e-284
8.63254e-286
3.64026e-253
2.4145e-255
1.82704e-221
6.65416e-225
1.80635e-197
-8.49634e-226
9.97551e-177
-4.13389e-224
1.83841e-158
-6.2642e-203
3.18165e-142
-4.72019e-182
1.17605e-127
-1.95222e-163
1.44899e-114
-1.2345e-146
8.38851e-103
-1.67987e-131
3.05765e-92
-6.70712e-118
8.95559e-83
-1.06063e-105
2.5937e-74
-8.863e-95
9.0795e-67
-5.14593e-85
4.51512e-60
-2.58919e-76
3.79087e-54
-1.42592e-68
6.29036e-49
-1.04478e-61
2.5287e-44
-1.30268e-55
2.67673e-40
-3.08543e-50
5.47797e-37
-6.90789e-46
4.98122e-35
-1.10781e-43
2.14388e-33
-8.26832e-42
5.76439e-32
-3.85877e-40
5.81394e-26
-7.45688e-26
5.98431e-25
-7.07058e-25
2.87052e-24
-3.16456e-24
-3.32021e-24
0
0
0
0
3.75791e-319
9.34278e-321
3.53182e-285
7.82915e-287
9.56476e-255
1.80075e-256
2.56831e-224
3.90154e-226
1.61663e-223
1.83161e-225
3.7186e-222
2.68567e-224
3.64288e-201
8.25449e-204
2.0382e-180
-9.58019e-204
6.80403e-162
-9.21594e-185
3.60337e-145
-1.54607e-166
4.18481e-130
-4.78617e-150
1.44205e-116
-3.84682e-135
1.98156e-104
-1.40173e-121
1.44431e-93
-2.76051e-109
7.34139e-84
-3.6212e-98
3.2364e-75
-3.70788e-88
1.56327e-67
-3.61297e-79
1.00495e-60
-3.96321e-71
1.10078e-54
-6.19024e-64
2.29605e-49
-1.49422e-57
4.67773e-45
-2.00232e-52
7.50381e-43
-4.49429e-50
5.53543e-41
-4.77965e-48
2.55661e-39
-3.23854e-46
4.89959e-25
-5.64528e-25
4.64824e-24
-4.86534e-24
1.99483e-23
-1.84646e-23
-1.81851e-23
0
0
0
0
3.11607e-320
8.34971e-322
2.48483e-286
6.0937e-288
5.47419e-256
1.18679e-257
1.14125e-225
2.12825e-227
1.16049e-224
1.80492e-226
2.4083e-223
2.98505e-225
6.44039e-203
5.88707e-205
4.09482e-201
2.44502e-203
1.44672e-182
5.19702e-185
1.49568e-164
1.80086e-167
3.33882e-148
-1.13057e-158
2.06816e-133
-2.93843e-143
6.04079e-120
-2.49032e-129
9.78303e-108
-1.21316e-116
1.0723e-96
-3.51508e-105
9.24444e-87
-9.09034e-95
7.63088e-78
-2.52077e-85
7.11151e-70
-8.61556e-77
9.47963e-63
-4.44842e-69
1.96685e-56
-3.6186e-62
2.35094e-51
-1.27692e-56
5.17676e-49
-3.06731e-54
5.34044e-47
-3.66723e-52
3.52066e-45
-3.62463e-50
6.00988e-24
-6.57441e-24
5.08012e-23
-4.96566e-23
1.93717e-22
-1.6138e-22
-1.57884e-22
0
0
0
0
2.67784e-321
7.41098e-323
1.85338e-287
4.56015e-289
3.43931e-257
7.45021e-259
5.90169e-227
1.10187e-228
8.52576e-226
1.34241e-227
1.9988e-224
2.59121e-226
3.52841e-204
3.64803e-206
4.43268e-202
3.5713e-204
1.00481e-183
6.38896e-186
3.20889e-166
1.60188e-168
9.91313e-156
3.73278e-158
8.26101e-141
2.13323e-143
4.03387e-127
5.63333e-130
1.32947e-114
1.08456e-118
2.84128e-103
-3.5084e-108
5.5962e-93
-1.72313e-97
1.21177e-83
-6.60593e-88
3.28214e-75
-2.98809e-79
1.36302e-67
-2.04168e-71
9.0633e-61
-2.63446e-64
2.73403e-55
-1.21825e-58
6.20962e-53
-2.58659e-56
6.97464e-51
-2.8059e-54
6.51553e-49
-8.76221e-52
1.12922e-22
-1.19497e-22
8.19731e-22
-7.56466e-22
2.72045e-21
-2.0621e-21
-1.99409e-21
0
0
0
0
2.32211e-322
4.94066e-324
1.38517e-288
3.33256e-290
2.15274e-258
4.51681e-260
3.04084e-228
5.48508e-230
5.79945e-227
8.86767e-229
1.61308e-225
2.06976e-227
2.1084e-205
2.24622e-207
5.2803e-203
4.65384e-205
1.02029e-184
7.65586e-187
2.30575e-167
1.52066e-169
2.30743e-156
1.36762e-158
1.19259e-141
6.46485e-144
2.98002e-128
1.49536e-130
1.49316e-116
6.91895e-119
2.58729e-105
1.10497e-107
5.48881e-95
2.06239e-97
1.2385e-85
3.74767e-88
3.6356e-77
6.9408e-80
1.73498e-69
5.98961e-73
1.63856e-62
-4.77225e-65
5.9155e-57
-2.51843e-59
1.10327e-54
-5.14956e-57
1.05899e-52
-5.3931e-55
2.96453e-50
-4.06439e-52
3.69913e-21
-3.81862e-21
2.16858e-20
-1.87432e-20
6.05644e-20
-4.09407e-20
-3.91357e-20
0
0
0
0
1.97626e-323
0
1.02932e-289
2.47792e-291
1.32665e-259
2.78324e-261
1.53778e-229
2.79732e-231
3.75159e-228
5.91183e-230
1.29374e-226
1.77785e-228
1.36186e-206
1.64582e-208
7.78694e-204
8.39437e-206
1.465e-185
1.45341e-187
2.59337e-168
2.4421e-170
-3.10137e-155
-2.82777e-157
-2.50183e-140
-2.23438e-142
-4.9544e-127
-4.36062e-129
-4.25584e-115
-3.69129e-117
-1.22039e-104
-1.04284e-106
2.35399e-94
1.95833e-96
6.23634e-85
4.96295e-87
1.49112e-76
1.09362e-78
5.08059e-69
3.2758e-71
2.68824e-62
1.40596e-64
5.71116e-57
1.99695e-59
7.5377e-55
1.09066e-57
5.82494e-53
-2.72675e-55
3.45063e-50
-5.57408e-52
2.70419e-19
-2.74237e-19
1.146e-18
-9.02142e-19
2.54654e-18
-1.48146e-18
-1.25436e-18
0
0
0
0
0
0
8.801e-291
2.17955e-292
9.33885e-261
2.02551e-262
8.8989e-231
1.69989e-232
2.97042e-229
5.06359e-231
1.55119e-227
2.39129e-229
1.53255e-207
2.15641e-209
-2.30834e-197
-2.98613e-199
-1.13392e-178
-1.36209e-180
-1.57345e-161
-1.77196e-163
-4.64257e-146
-4.92477e-148
-3.97414e-132
-3.97011e-134
-9.90861e-120
-9.29054e-122
-1.3746e-108
-1.20254e-110
-1.47493e-98
-1.19978e-100
-1.11936e-89
-8.40363e-92
-8.50158e-82
-5.82862e-84
-6.31879e-75
-3.86863e-77
5.37393e-68
2.85437e-70
8.50867e-61
3.74611e-63
1.39898e-55
4.62309e-58
1.42507e-53
2.90288e-56
7.44795e-52
7.36423e-55
2.7228e-49
6.29129e-54
7.73976e-17
-7.76719e-17
1.82963e-16
-1.46729e-16
2.98045e-16
-2.56396e-16
-2.70834e-16
2.602e-319
2.68031e-320
9.41981e-319
7.13875e-320
5.01123e-318
2.82186e-319
3.02119e-291
1.34784e-292
1.79e-261
6.45868e-263
1.11893e-231
3.34382e-233
-7.21396e-227
-1.83125e-228
-4.11093e-209
-9.04981e-211
-7.09665e-191
-1.37584e-192
-6.76675e-175
-1.16809e-176
-2.85186e-160
-4.43705e-162
-1.2714e-146
-1.80943e-148
-5.19004e-134
-6.82891e-136
-2.10383e-122
-2.56593e-124
-7.38936e-112
-8.32155e-114
-3.46838e-102
-3.57511e-104
-2.70828e-93
-2.54557e-95
-2.68655e-85
-2.28395e-87
-4.69578e-78
-3.56674e-80
-1.81733e-71
-1.19496e-73
-1.5547e-65
-8.46749e-68
-1.82609e-60
-7.68228e-63
4.11339e-56
1.16055e-58
4.54045e-56
6.55683e-56
9.24926e-56
7.34893e-55
1.87099e-13
-1.87099e-13
4.77267e-13
-4.45295e-13
8.04989e-13
-7.56729e-13
9.77261e-13
-9.84614e-13
-9.64344e-13
6.21277e-236
9.79279e-237
1.42364e-235
1.15592e-236
3.53442e-235
1.95285e-236
9.68934e-235
3.99854e-236
3.03568e-234
9.75092e-236
-2.03168e-227
-5.30206e-229
-1.24315e-209
-2.73687e-211
-5.18111e-195
-9.91637e-197
-1.88663e-180
-3.20869e-182
-1.18632e-166
-1.81286e-168
-1.14941e-153
-1.59678e-155
-2.19341e-141
-2.82978e-143
-8.20444e-130
-9.99658e-132
-5.67285e-119
-6.5356e-121
-5.49689e-109
-5.91556e-111
-1.0302e-99
-1.01336e-101
-4.42713e-91
-3.94607e-93
-2.72062e-83
-2.1642e-85
-3.85626e-76
-2.67833e-78
-1.77701e-69
-1.00885e-71
-1.76621e-63
-7.36929e-66
-9.6883e-58
-2.39961e-60
-1.296e-52
-8.98401e-56
1.53141e-10
-1.53141e-10
6.39531e-10
-4.89548e-10
1.43889e-09
-8.0964e-10
2.21254e-09
-7.91737e-10
3.06097e-09
-8.67878e-10
3.62581e-09
-5.8489e-10
1.4231e-09
5.9085e-168
1.9847e-167
1.45265e-168
4.45585e-168
3.61431e-169
1.09122e-168
8.85315e-170
2.72899e-169
2.09822e-170
6.75493e-170
4.75624e-171
1.6226e-170
1.0227e-171
3.73354e-171
2.07271e-172
8.15426e-172
3.93916e-173
1.6788e-172
-4.03767e-164
-3.2142e-166
-1.36429e-151
-1.08506e-153
-1.12716e-139
-9.23387e-142
-2.1768e-128
-1.87568e-130
-9.24893e-118
-8.21279e-120
-6.3183e-108
-5.51252e-110
-9.50818e-99
-7.64642e-101
-3.58682e-90
-2.5946e-92
-1.96028e-82
-1.22752e-84
-2.63122e-75
-1.34883e-77
-1.25762e-68
-4.2791e-71
-1.28429e-62
-1.48039e-65
1.29291e-07
-1.29291e-07
4.90483e-07
-3.61192e-07
1.0435e-06
-5.53173e-07
1.79391e-06
-7.50891e-07
2.73267e-06
-9.39559e-07
3.70434e-06
-9.72445e-07
4.70949e-06
-1.006e-06
5.76109e-06
-1.05217e-06
-9.62889e-07
6.75238e-05
-2.55486e-05
8.20948e-05
-1.4571e-05
9.25901e-05
-1.04953e-05
0.000100659
-8.06898e-06
0.000106959
-6.29963e-06
0.000111989
-5.03002e-06
0.000116082
-4.09298e-06
0.000119436
-3.35388e-06
0.000122187
-2.75183e-06
0.000124475
-2.28742e-06
0.000126406
-1.92723e-06
0.000128005
-1.59878e-06
0.000129291
-1.28636e-06
0.000130316
-1.02424e-06
0.00013116
-8.44259e-07
0.000131921
-7.60881e-07
0.000132634
-7.12669e-07
0.000133334
-7.00481e-07
0.000134055
-7.20677e-07
0.00013489
-8.35431e-07
0.000135911
-1.03512e-06
0.000137071
-1.28939e-06
0.000138217
-1.50722e-06
0.000139265
-1.60084e-06
0.000140265
-1.7505e-06
0.00014122
-1.89529e-06
0.000142026
-1.77838e-06
0.000142725
-1.70486e-06
0.00014336
-1.68696e-06
-1.51577e-06
0.000166566
-5.42633e-05
0.000192535
-4.05394e-05
0.000212581
-3.0542e-05
0.000228977
-2.44641e-05
0.000242588
-1.9911e-05
0.000254069
-1.65113e-05
0.000263944
-1.3968e-05
0.000272572
-1.19815e-05
0.000280198
-1.03779e-05
0.000287013
-9.10242e-06
0.000293177
-8.09099e-06
0.000298806
-7.22753e-06
0.000303974
-6.45532e-06
0.000308735
-5.78502e-06
0.000313128
-5.23728e-06
0.000317185
-4.81803e-06
0.00032093
-4.45756e-06
0.000324376
-4.14582e-06
0.000327527
-3.87188e-06
0.000330382
-3.69094e-06
0.000332938
-3.59038e-06
0.000335171
-3.5232e-06
0.000337002
-3.33776e-06
0.000338327
-2.92567e-06
0.000339257
-2.68114e-06
0.000339833
-2.47077e-06
0.000340075
-2.02068e-06
0.000340068
-1.6978e-06
0.000339919
-1.53824e-06
-1.35186e-06
0.000527869
-6.03802e-05
0.000543203
-5.58738e-05
0.000558776
-4.61152e-05
0.000573705
-3.93929e-05
0.000587937
-3.41429e-05
0.000601144
-2.97182e-05
0.000613337
-2.61616e-05
0.000624633
-2.32772e-05
0.000635125
-2.08706e-05
0.000644917
-1.88941e-05
0.000654127
-1.73004e-05
0.000662821
-1.59224e-05
0.00067103
-1.4664e-05
0.000678776
-1.35307e-05
0.000686084
-1.25455e-05
0.000692972
-1.17062e-05
0.000699449
-1.09346e-05
0.000705504
-1.02002e-05
0.000711116
-9.48468e-06
0.000716253
-8.82706e-06
0.000720875
-8.21279e-06
0.000724913
-7.56132e-06
0.000728175
-6.59952e-06
0.000730461
-5.21201e-06
0.000731969
-4.18864e-06
0.000732748
-3.25055e-06
0.000732842
-2.11416e-06
0.000732353
-1.20863e-06
0.000731746
-9.31962e-07
-6.78447e-07
0.00163871
-4.90995e-05
0.00163034
-4.75003e-05
0.00162595
-4.17208e-05
0.00162249
-3.59385e-05
0.00161938
-3.10279e-05
0.00161625
-2.65924e-05
0.00161278
-2.26878e-05
0.00160889
-1.93863e-05
0.00160467
-1.66531e-05
0.00160035
-1.4577e-05
0.00159627
-1.32172e-05
0.00159266
-1.23116e-05
0.00158967
-1.16744e-05
0.00158741
-1.12709e-05
0.00158595
-1.10917e-05
0.00158532
-1.10727e-05
0.00158545
-1.10675e-05
0.00158621
-1.09606e-05
0.00158742
-1.06868e-05
0.0015888
-1.02092e-05
0.00159009
-9.49973e-06
0.00159094
-8.41497e-06
0.00159092
-6.58301e-06
0.00158986
-4.15017e-06
0.00158774
-2.06337e-06
0.00158443
5.09221e-08
0.00157991
2.41049e-06
0.00157413
4.57313e-06
0.00156865
4.54717e-06
3.28551e-06
0.00153869
-4.56288e-05
0.00153611
-4.49169e-05
0.0015355
-4.11091e-05
0.00153568
-3.61233e-05
0.00153587
-3.12148e-05
0.00153579
-2.65176e-05
0.0015352
-2.20961e-05
0.00153388
-1.80647e-05
0.00153172
-1.44878e-05
0.00152872
-1.15802e-05
0.00152501
-9.50769e-06
0.00152066
-7.96049e-06
0.00151576
-6.77527e-06
0.0015104
-5.90701e-06
0.00150464
-5.3401e-06
0.00149855
-4.9835e-06
0.00149215
-4.65887e-06
0.00148534
-4.15565e-06
0.00147802
-3.36776e-06
0.00147
-2.18916e-06
0.00146103
-5.30377e-07
0.00145081
1.80394e-06
0.00143934
4.89327e-06
0.00142742
7.77162e-06
0.00141475
1.06058e-05
0.00140124
1.35547e-05
0.00138697
1.66821e-05
0.00137194
1.96021e-05
0.00135753
1.89624e-05
1.15612e-05
0.00154889
-4.38923e-05
0.00154766
-4.36906e-05
0.00154762
-4.10657e-05
0.00154838
-3.68907e-05
0.00154934
-3.21725e-05
0.00155021
-2.7388e-05
0.00155078
-2.26696e-05
0.00155081
-1.80904e-05
0.00155014
-1.38195e-05
0.00154884
-1.02819e-05
0.00154696
-7.61892e-06
0.00154431
-5.31481e-06
0.00154076
-3.2217e-06
0.00153617
-1.3195e-06
0.00153039
4.42818e-07
0.00152322
2.18327e-06
0.00151444
4.12288e-06
0.0015038
6.47695e-06
0.00149104
9.39962e-06
0.0014758
1.30448e-05
0.00145784
1.74356e-05
0.00143696
2.2679e-05
0.00141381
2.80413e-05
0.00139054
3.10423e-05
0.00136695
3.42039e-05
0.00134321
3.72912e-05
0.00131959
4.03011e-05
0.0012962
4.29943e-05
0.00127401
4.11468e-05
2.33535e-05
0.00155032
-4.23827e-05
0.00154844
-4.18093e-05
0.00154713
-3.97519e-05
0.00154626
-3.603e-05
0.00154554
-3.14523e-05
0.00154477
-2.66128e-05
0.00154376
-2.16583e-05
0.00154217
-1.65037e-05
0.00153963
-1.12811e-05
0.00153602
-6.67419e-06
0.00153139
-2.98847e-06
0.00152537
7.04642e-07
0.00151778
4.37639e-06
0.00150832
8.13476e-06
0.00149681
1.19552e-05
0.00148303
1.5961e-05
0.00146677
2.03882e-05
0.00144775
2.54916e-05
0.00142581
3.1338e-05
0.00140085
3.80135e-05
0.00137277
4.55107e-05
0.00134175
5.37007e-05
0.00130904
6.07459e-05
0.00127778
6.23047e-05
0.00124759
6.44008e-05
0.00121863
6.62512e-05
0.00119105
6.78722e-05
0.00116487
6.91805e-05
0.00113981
6.62078e-05
3.70837e-05
0.00153416
-3.73133e-05
0.00152878
-3.64233e-05
0.00152281
-3.37857e-05
0.00151621
-2.94254e-05
0.00150919
-2.44386e-05
0.00150163
-1.90445e-05
0.00149349
-1.35248e-05
0.00148441
-7.41975e-06
0.00147385
-7.19441e-07
0.00146144
5.73161e-06
0.00144686
1.15893e-05
0.00143029
1.72761e-05
0.00141182
2.28442e-05
0.00139127
2.86901e-05
0.0013688
3.44231e-05
0.00134434
4.04232e-05
0.00131789
4.68407e-05
0.0012895
5.38763e-05
0.00125923
6.16113e-05
0.00122714
7.01014e-05
0.00119335
7.9297e-05
0.00115808
8.89752e-05
0.00112258
9.62443e-05
0.00108999
9.48909e-05
0.00105964
9.47578e-05
0.00103144
9.44513e-05
0.0010053
9.40073e-05
0.000980944
9.3539e-05
0.000956422
9.07293e-05
5.00868e-05
0.00143434
-2.20143e-05
0.00141777
-1.98581e-05
0.00140056
-1.65744e-05
0.001382
-1.08616e-05
0.00136309
-5.53418e-06
0.00134286
1.18588e-06
0.00132066
8.67856e-06
0.00129683
1.64102e-05
0.00127213
2.39767e-05
0.00124686
3.09999e-05
0.00122132
3.71357e-05
0.00119537
4.32287e-05
0.00116886
4.93464e-05
0.00114186
5.56924e-05
0.00111403
6.22516e-05
0.00108529
6.91626e-05
0.00105559
7.65466e-05
0.00102493
8.45385e-05
0.000993385
9.31519e-05
0.000961096
0.00010239
0.000928199
0.000112194
0.000894749
0.000122425
0.000861754
0.00012924
0.00083218
0.000124465
0.00080536
0.000121578
0.000781034
0.000118777
0.000758778
0.000116263
0.000739195
0.000113122
0.000715673
0.000114252
6.60387e-05
0.00113566
0.00110497
0.00107379
0.00104379
0.00101466
0.000987552
0.000962942
0.000940493
0.000919494
0.000899016
0.000878082
0.000856311
0.000833394
0.000809198
0.000783645
0.000756802
0.000728851
0.000700064
0.000670726
0.000641112
0.00061147
0.000581749
0.000552528
0.000526829
0.000504299
0.000484369
0.000466401
0.000451492
0.000429737
)
;

boundaryField
{
    walls
    {
        type            calculated;
        value           nonuniform List<scalar> 
100
(
0
0
0
0
0
5.21294e-316
1.1548e-293
3.49606e-246
3.16696e-213
-9.57598e-169
0
0
0
0
0
0
0
0
0
0
0
0
6.82305e-320
1.26237e-285
8.04414e-255
5.00593e-223
5.98603e-199
3.95289e-178
8.63824e-160
1.75419e-143
7.50861e-129
1.06274e-115
7.03385e-104
2.92074e-93
9.71749e-84
3.19088e-75
1.26372e-67
7.10217e-61
6.73172e-55
1.26043e-49
5.71359e-45
6.82693e-41
1.53387e-37
1.38797e-35
5.99595e-34
1.61901e-32
1.64307e-26
1.66786e-25
8.92658e-25
9.98526e-25
9.28204e-06
1.08262e-05
1.46063e-05
1.91418e-05
2.35902e-05
2.82985e-05
3.32885e-05
3.88596e-05
4.49759e-05
5.14782e-05
5.80695e-05
6.49989e-05
7.22636e-05
7.98891e-05
8.78042e-05
9.60057e-05
0.000104497
0.000113325
0.00012249
0.000132004
0.000141836
0.000152146
0.000158461
0.000150164
0.000144108
0.000138707
0.000134231
0.000128032
0.000136007
8.03443e-05
0.000262546
0.000160404
0.000114844
9.08671e-05
7.73986e-05
6.8932e-05
6.22138e-05
5.50762e-05
4.26957e-05
-2.49046e-06
2.22545e-05
2.18579e-05
2.21561e-05
2.42984e-05
2.68575e-05
2.87223e-05
3.01924e-05
3.12943e-05
3.19253e-05
3.0602e-05
)
;
    }
    topInlet
    {
        type            calculated;
        value           nonuniform List<scalar> 10(-0.000174246 -0.000370233 -0.000799057 -0.0017264 -0.00154049 -0.00154384 -0.00154678 -0.00154938 -0.00155119 -0.00155304);
    }
    bottomInlet
    {
        type            calculated;
        value           uniform 0;
    }
    outlet
    {
        type            calculated;
        value           nonuniform List<scalar> 
20
(
5.19638e-24
3.48131e-23
3.33416e-22
4.55666e-21
9.77061e-20
3.68858e-18
3.12022e-16
6.8207e-13
2.17708e-09
6.72542e-06
0.000143913
0.000339756
0.000731073
0.00156469
0.00134925
0.00126222
0.00112608
0.000943419
0.000699721
0.000415431
)
;
    }
    frontBack
    {
        type            empty;
        value           nonuniform 0();
    }
}


// ************************************************************************* //
