/*--------------------------------*- C++ -*----------------------------------*\
| =========                 |                                                 |
| \\      /  F ield         | OpenFOAM: The Open Source CFD Toolbox           |
|  \\    /   O peration     | Version:  4.x                                   |
|   \\  /    A nd           | Web:      www.OpenFOAM.org                      |
|    \\/     M anipulation  |                                                 |
\*---------------------------------------------------------------------------*/
FoamFile
{
    version     2.0;
    format      ascii;
    class       volScalarField;
    location    "0.25";
    object      alpha.upper;
}
// * * * * * * * * * * * * * * * * * * * * * * * * * * * * * * * * * * * * * //

dimensions      [0 0 0 0 0 0 0];

internalField   nonuniform List<scalar> 
800
(
0
0
0
0
1.15611e-321
1.16599e-321
1.17588e-321
1.18576e-321
1.18576e-321
1.19564e-321
0
0
0
0
1.10671e-321
1.10671e-321
1.10671e-321
1.11659e-321
1.11659e-321
1.12647e-321
0
0
0
0
1.09683e-321
1.09683e-321
1.09683e-321
1.10671e-321
1.10671e-321
1.10671e-321
0
0
0
0
1.08694e-321
1.08694e-321
1.09683e-321
1.09683e-321
1.09683e-321
1.09683e-321
0
0
0
0
1.08694e-321
1.08694e-321
1.08694e-321
1.09683e-321
1.09683e-321
1.09683e-321
0
0
0
0
1.08694e-321
1.08694e-321
1.08694e-321
1.09683e-321
1.09683e-321
1.09683e-321
0
0
0
0
9.68369e-322
9.7825e-322
9.7825e-322
9.88131e-322
9.88131e-322
9.88131e-322
0
0
0
0
2.19365e-321
2.23318e-321
2.2727e-321
2.30235e-321
2.33199e-321
1.32091e-316
0
0
0
0
1.04347e-320
1.06521e-320
1.38934e-302
5.56233e-258
1.89095e-236
1.78403e-232
0
0
0
0
2.2648e-320
7.55217e-312
1.85118e-289
6.30993e-242
7.3152e-209
5.4468e-163
1
1
1
1
1
1
1
1
1
1
1
1
1
1
1
1
1
1
1
1
1
1
1
1
1
1
1
1
1
1
1
1
1
1
1
1
1
1
1
1
1
1
1
1
1
1
1
1
1
1
1
1
1
1
1
1
1
1
1
1
1
1
1
1
1
1
1
1
1
1
1
1
1
1
1
1
1
1
1
1
1
1
1
1
1
1
1
1
1
1
1
1
1
1
1
1
1
1
1
1
1.54148e-321
1.45255e-321
5.01393e-315
7.03079e-281
3.58075e-250
1.84707e-218
1.8735e-194
1.05976e-173
1.99833e-155
3.5379e-139
1.339e-124
1.69179e-111
1.00637e-99
3.77781e-89
1.14235e-79
3.42438e-71
1.24396e-63
6.43535e-57
5.63377e-51
9.76768e-46
4.11039e-41
4.56467e-37
9.81519e-34
9.34138e-32
4.19147e-30
1.17105e-28
1.22456e-22
1.30021e-21
6.54193e-21
1.22328e-20
1.40315e-321
1.3241e-321
2.68049e-316
2.5527e-282
7.00913e-252
1.91016e-221
1.2223e-220
2.86311e-219
2.8594e-198
1.63251e-177
5.56499e-159
3.01171e-142
3.57753e-127
1.26218e-113
1.77779e-101
1.33001e-90
6.94925e-81
3.15408e-72
1.57108e-64
1.04317e-57
1.18206e-51
2.5549e-46
5.39749e-42
8.95462e-40
6.81678e-38
3.2424e-36
6.38894e-22
6.21566e-21
2.75221e-20
4.90939e-20
1.36362e-321
1.28457e-321
2.04569e-317
1.63824e-283
3.62596e-253
7.59749e-223
7.76827e-222
1.6219e-220
4.36852e-200
2.8006e-198
9.99326e-180
1.04507e-161
2.36349e-145
1.48561e-130
4.41062e-117
7.27263e-105
8.13084e-94
7.163e-84
6.05342e-75
5.78678e-67
7.92799e-60
1.69384e-53
2.08689e-48
4.72854e-46
5.01314e-44
3.39209e-42
5.93574e-21
5.13787e-20
2.00777e-19
3.50161e-19
1.36362e-321
1.28457e-321
1.72945e-318
1.19845e-284
2.22505e-254
3.82014e-224
5.52252e-223
1.29605e-221
2.2915e-201
2.8856e-199
6.5605e-181
2.10321e-163
6.52928e-153
5.47451e-138
2.69346e-124
8.95874e-112
1.93562e-100
3.86191e-90
8.48968e-81
2.33991e-72
9.91299e-65
6.74123e-58
2.08331e-52
4.84476e-50
5.56989e-48
5.32338e-46
9.43348e-20
6.99742e-19
2.37178e-18
4.01957e-18
1.36362e-321
1.28457e-321
1.51095e-319
8.94446e-286
1.38922e-255
1.96123e-225
3.73901e-224
1.03992e-222
1.35977e-202
3.40823e-200
6.59355e-182
1.49256e-164
1.49696e-153
7.75927e-139
1.94596e-125
9.79475e-114
1.70675e-102
3.64576e-92
8.29507e-83
2.45968e-74
1.18802e-66
1.13803e-59
4.17466e-54
7.91393e-52
7.72484e-50
2.19984e-47
2.79293e-18
1.66614e-17
4.73203e-17
7.70334e-17
1.36362e-321
1.28457e-321
1.32212e-320
6.69887e-287
8.63245e-257
1.00062e-226
2.4419e-225
8.4275e-224
8.88286e-204
5.08852e-201
9.59547e-183
1.70324e-165
-2.04319e-152
-1.65386e-137
-3.28727e-124
-2.83497e-112
-8.16374e-102
1.5818e-91
4.21118e-82
1.01236e-73
3.47039e-66
1.84911e-59
3.9595e-54
5.26908e-52
4.10783e-50
2.45647e-47
1.94451e-16
8.3288e-16
1.86989e-15
2.72461e-15
1.24505e-321
1.16599e-321
1.08694e-321
5.40883e-288
5.74992e-258
5.48922e-228
1.8361e-226
9.61081e-225
9.51963e-205
-1.43768e-194
-7.08028e-176
-9.84722e-159
-2.9111e-143
-2.49572e-129
-6.22895e-117
-8.64615e-106
-9.27812e-96
-7.03941e-87
-5.34352e-79
-3.96893e-72
3.37338e-65
5.33918e-58
8.77978e-53
8.95015e-51
4.68401e-49
1.71591e-46
2.51737e-14
2.75935e-14
2.69746e-14
2.77237e-14
4.88441e-316
1.72041e-315
8.90624e-315
5.23413e-288
3.02821e-258
1.85246e-228
-1.17116e-223
-6.55605e-206
-1.11348e-187
-1.04596e-171
-4.34751e-157
-1.91328e-143
-7.71662e-131
-3.093e-119
-1.07503e-108
-4.99681e-99
-3.8664e-90
-3.80316e-82
-6.59612e-75
-2.53487e-68
-2.15492e-62
-2.51725e-57
5.6453e-53
5.64814e-53
6.30161e-53
-1.74401e-12
-4.65192e-12
1.10905e-13
1.53223e-13
1.68075e-13
3.70354e-232
7.35604e-232
1.65604e-231
4.2183e-231
1.24815e-230
-7.97928e-224
-4.70116e-206
-1.89776e-191
-6.72364e-177
-4.12815e-163
-3.91619e-150
-7.33338e-138
-2.69668e-126
-1.836e-115
-1.75425e-105
-3.24595e-96
-1.37873e-87
-8.38336e-80
-1.17692e-72
-5.3768e-66
-5.30338e-60
-2.88982e-54
-3.8448e-49
-4.84744e-10
-1.83789e-09
-3.92632e-09
-5.87135e-09
5.30774e-10
8.5939e-10
9.31931e-10
3.54951e-172
6.02453e-173
1.16689e-173
2.41453e-174
5.00745e-175
1.01181e-175
1.95191e-176
3.53384e-177
6.04601e-178
-3.04982e-160
-1.00766e-147
-8.16082e-136
-1.54807e-124
-6.4721e-114
-4.3571e-104
-6.47028e-95
-2.41151e-86
-1.30357e-78
-1.73249e-71
-8.20741e-65
-8.31573e-59
0.000435895
0.00201342
0.00487445
0.0089557
0.0143786
0.0203006
0.026643
0.0326461
0.0426612
0.995259
0.990024
0.984478
0.979105
0.973733
0.968271
0.96264
0.956711
0.950377
0.94379
0.937227
0.930491
0.92336
0.915866
0.908289
0.901193
0.894791
0.889225
0.884685
0.881176
0.880045
0.880926
0.882831
0.885584
0.889054
0.893301
0.897647
0.902076
0.906099
0.912499
1
1
1
1
1
1
1
1
1
1
1
1
1
1
1
1
1
1
1
1
1
1
1
1
1
1
1
1
1
1
1
1
1
1
1
1
1
1
1
1
1
1
1
1
1
1
1
1
1
1
1
1
1
1
1
1
1
1
1
1
1
1
1
1
1
1
1
1
1
1
1
1
1
1
1
1
1
1
1
1
1
1
1
1
1
1
1
1
1
1
1
1
1
1
1
1
1
1
1
1
1
1
1
1
1
1
1
1
1
1
1
1
1
1
1
1
1
1
1
1
1
1
1
1
1
1
1
1
1
1
1
1
1
1
1
1
1
1
1
1
1
1
1
1
1
1
1
1
1
1
1
1
1
1
1
1
1
1
1
1
1
1
1
1
1
1
1
1
1
1
1
1
1
1
1
1
1
1
1
1
1
1
1
1
1
1
1
1
1
1
1
1
1
1
1
1
1
1
1
1
1
1
1
1
1
1
1
1
1
1
1
1
1
1
1
1
1
1
1
1
1
1
1
1
1
1
1
1
1
1
1
1
1
1
1
1
1
1
1
1
1
1
1
1
1
1
1
1
1
1
1
1
1
1
1
1
1
1
1
1
1
1
1
1
1
1
1
1
1
1
)
;

boundaryField
{
    walls
    {
        type            zeroGradient;
    }
    topInlet
    {
        type            fixedValue;
        value           uniform 1;
    }
    bottomInlet
    {
        type            fixedValue;
        value           uniform 0;
    }
    outlet
    {
        type            inletOutlet;
        inletValue      uniform 0;
        value           nonuniform List<scalar> 
20
(
1.22328e-20
4.90939e-20
3.50161e-19
4.01957e-18
7.70334e-17
2.72461e-15
2.77237e-14
1.68075e-13
9.31931e-10
0.0426612
0.912499
1
1
1
1
1
1
1
1
1
)
;
    }
    frontBack
    {
        type            empty;
    }
}


// ************************************************************************* //
