/*--------------------------------*- C++ -*----------------------------------*\
| =========                 |                                                 |
| \\      /  F ield         | OpenFOAM: The Open Source CFD Toolbox           |
|  \\    /   O peration     | Version:  4.x                                   |
|   \\  /    A nd           | Web:      www.OpenFOAM.org                      |
|    \\/     M anipulation  |                                                 |
\*---------------------------------------------------------------------------*/
FoamFile
{
    version     2.0;
    format      ascii;
    class       volScalarField;
    location    "0.2";
    object      alpha.upper;
}
// * * * * * * * * * * * * * * * * * * * * * * * * * * * * * * * * * * * * * //

dimensions      [0 0 0 0 0 0 0];

internalField   nonuniform List<scalar> 
200
(
2.22127e-268
1.19957e-267
4.04766e-255
1.36875e-227
7.24445e-203
1.53042e-176
4.11601e-157
2.09323e-140
1.00264e-125
1.07982e-112
7.86832e-270
6.8267e-269
2.16391e-256
4.96958e-229
1.41806e-204
1.58269e-179
1.01276e-178
2.84485e-177
2.31893e-159
9.09792e-143
4.01085e-271
4.90631e-270
1.65147e-257
3.18932e-230
7.33591e-206
6.29502e-181
6.43652e-180
1.58923e-178
3.54281e-161
2.79961e-159
2.26087e-272
3.66802e-271
1.39574e-258
2.33314e-231
4.50165e-207
3.16524e-182
4.57577e-181
1.26234e-179
1.85837e-162
2.96151e-160
1.31879e-273
2.75592e-272
1.21584e-259
1.7413e-232
2.81062e-208
1.625e-183
3.09801e-182
1.01332e-180
1.10275e-163
3.63136e-161
8.04881e-275
2.10261e-273
1.08436e-260
1.30413e-233
1.74649e-209
8.29076e-185
2.02327e-183
8.27485e-182
7.20387e-165
5.76113e-162
5.18956e-276
1.69221e-274
1.06692e-261
1.05299e-234
1.1633e-210
4.54818e-186
1.52133e-184
9.75094e-183
7.72029e-166
-1.03563e-155
4.56398e-264
1.60754e-263
1.22838e-256
1.03533e-234
6.12657e-211
1.53489e-186
-2.88972e-179
-4.34974e-165
-3.36269e-150
-2.38436e-137
2.35582e-198
4.67959e-198
1.0536e-197
2.68401e-197
9.43715e-197
-1.1966e-179
-9.86315e-165
-5.58312e-153
-3.14223e-141
-3.76897e-130
2.67875e-153
4.54661e-154
8.80631e-155
1.8222e-155
3.77904e-156
7.63596e-157
1.47307e-157
2.66692e-158
-2.39698e-138
-1.01146e-127
0.995259
0.990024
0.984478
0.979105
0.973733
0.968271
0.96264
0.956711
0.950377
0.94379
1
1
1
1
1
1
1
1
1
1
1
1
1
1
1
1
1
1
1
1
1
1
1
1
1
1
1
1
1
1
1
1
1
1
1
1
1
1
1
1
1
1
1
1
1
1
1
1
1
1
1
1
1
1
1
1
1
1
1
1
1
1
1
1
1
1
1
1
1
1
1
1
1
1
1
1
1
1
1
1
1
1
1
1
1
1
1
1
1
1
)
;

boundaryField
{
    walls
    {
        type            zeroGradient;
    }
    topInlet
    {
        type            fixedValue;
        value           nonuniform 0();
    }
    bottomInlet
    {
        type            fixedValue;
        value           nonuniform 0();
    }
    outlet
    {
        type            inletOutlet;
        inletValue      nonuniform 0();
        value           nonuniform 0();
    }
    frontBack
    {
        type            empty;
    }
    procBoundary1to0
    {
        type            processor;
        value           nonuniform List<scalar> 
20
(
4.56163e-269
1.59975e-308
1.31942e-310
3.13418e-312
1.57708e-313
1.26851e-314
5.49795e-315
1.23426e-264
1.13471e-198
4.1106e-144
1
1
1
1
1
1
1
1
1
1
)
;
    }
    procBoundary1to2
    {
        type            processor;
        value           nonuniform List<scalar> 
20
(
5.12657e-101
5.79562e-128
3.54652e-144
2.3283e-145
2.34019e-146
3.40374e-147
-9.17665e-141
-1.2314e-125
-9.20309e-120
-1.08813e-117
0.937227
1
1
1
1
1
1
1
1
1
)
;
    }
}


// ************************************************************************* //
