/*--------------------------------*- C++ -*----------------------------------*\
| =========                 |                                                 |
| \\      /  F ield         | OpenFOAM: The Open Source CFD Toolbox           |
|  \\    /   O peration     | Version:  4.x                                   |
|   \\  /    A nd           | Web:      www.OpenFOAM.org                      |
|    \\/     M anipulation  |                                                 |
\*---------------------------------------------------------------------------*/
FoamFile
{
    version     2.0;
    format      ascii;
    class       surfaceScalarField;
    location    "0.2";
    object      alphaPhi;
}
// * * * * * * * * * * * * * * * * * * * * * * * * * * * * * * * * * * * * * //

dimensions      [0 3 -1 0 0 0 0];

internalField   nonuniform List<scalar> 
370
(
2.5277e-271
5.05871e-273
1.32827e-270
2.48345e-272
4.35552e-258
7.13071e-260
1.43147e-230
1.68058e-232
7.36484e-206
4.88493e-208
1.51382e-179
5.51341e-183
3.96848e-160
-7.03977e-184
1.97035e-143
-4.10753e-182
9.22401e-129
-5.08018e-164
-2.63054e-147
1.12974e-272
2.99463e-274
9.68843e-272
2.54703e-273
3.03371e-259
7.54305e-261
6.87572e-232
1.52417e-233
1.93511e-207
3.64321e-209
2.12801e-182
3.23268e-184
1.33948e-181
1.51761e-183
3.69488e-180
2.66854e-182
2.95432e-162
6.69428e-165
-9.57679e-165
6.15465e-274
1.72759e-275
7.5026e-273
2.09193e-274
2.51567e-260
6.72862e-262
4.83744e-233
1.18632e-234
1.10752e-208
2.40108e-210
9.45597e-184
1.7634e-185
9.61543e-183
1.4955e-184
2.35979e-181
2.92492e-183
5.22306e-164
4.77433e-166
2.44415e-164
3.50543e-275
1.00805e-276
5.68038e-274
1.63201e-275
2.15966e-261
5.86782e-263
3.60814e-234
8.87766e-236
6.95829e-210
1.5073e-211
4.88994e-185
9.12969e-187
7.06415e-184
1.11227e-185
1.94681e-182
2.52381e-184
2.86149e-165
2.9585e-167
3.66524e-165
2.04288e-276
6.10081e-278
4.26576e-275
1.2591e-276
1.88193e-262
5.11369e-264
2.69663e-235
6.4878e-237
4.35534e-211
9.13825e-213
2.51953e-186
4.54475e-188
4.80523e-185
7.34745e-187
1.57181e-183
2.01681e-185
1.70988e-166
1.82166e-168
4.95853e-166
1.23895e-277
3.99374e-279
3.23131e-276
1.01287e-277
1.66588e-263
4.61826e-265
2.00386e-236
4.824e-238
2.68404e-212
5.63095e-214
1.27415e-187
2.31776e-189
3.10844e-186
4.89834e-188
1.27031e-184
1.74565e-186
1.10445e-167
1.33474e-169
9.50396e-167
8.52556e-279
3.14448e-280
2.76623e-277
9.52949e-279
1.73957e-264
4.99486e-266
1.71337e-237
4.24314e-239
1.8894e-213
4.09795e-215
7.37332e-189
1.40847e-190
2.46119e-187
4.19552e-189
1.57381e-185
2.42616e-187
1.24287e-168
1.74882e-170
-2.15106e-160
2.4313e-267
2.50467e-268
8.80183e-267
6.67064e-268
6.91167e-260
3.892e-261
5.97601e-238
2.66607e-239
3.62147e-214
1.3067e-215
9.2711e-190
2.77057e-191
-1.77997e-182
-4.51843e-184
-2.72748e-168
-6.00427e-170
-2.14318e-153
-4.15503e-155
-2.66278e-142
3.95194e-202
6.2292e-203
9.05659e-202
7.35345e-203
2.24865e-201
1.24243e-202
6.16511e-201
2.54418e-202
2.29524e-200
7.37256e-202
-3.04678e-183
-7.95115e-185
-2.60815e-168
-5.74203e-170
-1.52426e-156
-2.91736e-158
-8.81699e-145
-1.49955e-146
-1.65513e-135
4.45905e-149
1.49782e-148
1.09629e-149
3.36275e-149
2.72766e-150
8.23526e-150
6.68132e-151
2.05952e-150
1.58349e-151
5.09783e-151
3.58945e-152
1.22455e-151
7.71812e-153
2.81764e-152
1.56424e-153
6.15386e-153
-3.09337e-142
-2.42624e-144
-1.06598e-133
6.75238e-05
-2.55486e-05
8.20948e-05
-1.4571e-05
9.25901e-05
-1.04953e-05
0.000100659
-8.06898e-06
0.000106959
-6.29963e-06
0.000111989
-5.03002e-06
0.000116082
-4.09298e-06
0.000119436
-3.35388e-06
0.000122187
-2.75183e-06
-2.28742e-06
0.000166566
-5.42633e-05
0.000192535
-4.05394e-05
0.000212581
-3.0542e-05
0.000228977
-2.44641e-05
0.000242588
-1.9911e-05
0.000254069
-1.65113e-05
0.000263944
-1.3968e-05
0.000272572
-1.19815e-05
0.000280198
-1.03779e-05
-9.10241e-06
0.000527869
-6.03802e-05
0.000543203
-5.58738e-05
0.000558776
-4.61152e-05
0.000573705
-3.93929e-05
0.000587937
-3.41429e-05
0.000601144
-2.97182e-05
0.000613337
-2.61616e-05
0.000624633
-2.32772e-05
0.000635125
-2.08706e-05
-1.88941e-05
0.00163871
-4.90995e-05
0.00163034
-4.75003e-05
0.00162595
-4.17208e-05
0.00162249
-3.59385e-05
0.00161938
-3.10279e-05
0.00161625
-2.65924e-05
0.00161278
-2.26878e-05
0.00160889
-1.93863e-05
0.00160467
-1.66531e-05
-1.4577e-05
0.00153869
-4.56288e-05
0.00153611
-4.49169e-05
0.0015355
-4.11091e-05
0.00153568
-3.61233e-05
0.00153587
-3.12148e-05
0.00153579
-2.65176e-05
0.0015352
-2.20961e-05
0.00153388
-1.80647e-05
0.00153172
-1.44878e-05
-1.15802e-05
0.00154889
-4.38923e-05
0.00154766
-4.36906e-05
0.00154762
-4.10657e-05
0.00154838
-3.68907e-05
0.00154934
-3.21725e-05
0.00155021
-2.7388e-05
0.00155078
-2.26696e-05
0.00155081
-1.80904e-05
0.00155014
-1.38195e-05
-1.02819e-05
0.00155032
-4.23827e-05
0.00154844
-4.18093e-05
0.00154713
-3.97519e-05
0.00154626
-3.603e-05
0.00154554
-3.14523e-05
0.00154477
-2.66128e-05
0.00154376
-2.16583e-05
0.00154217
-1.65037e-05
0.00153963
-1.12811e-05
-6.67419e-06
0.00153416
-3.73133e-05
0.00152878
-3.64233e-05
0.00152281
-3.37857e-05
0.00151621
-2.94254e-05
0.00150919
-2.44386e-05
0.00150163
-1.90445e-05
0.00149349
-1.35248e-05
0.00148441
-7.41975e-06
0.00147385
-7.19442e-07
5.73162e-06
0.00143434
-2.20143e-05
0.00141777
-1.98581e-05
0.00140056
-1.65744e-05
0.001382
-1.08616e-05
0.00136309
-5.53418e-06
0.00134286
1.18588e-06
0.00132066
8.67856e-06
0.00129683
1.64102e-05
0.00127213
2.39767e-05
3.09999e-05
0.00113566
0.00110497
0.00107379
0.00104379
0.00101466
0.000987552
0.000962942
0.000940493
0.000919494
)
;

boundaryField
{
    walls
    {
        type            calculated;
        value           nonuniform List<scalar> 
20
(
1.89522e-273
1.1951e-272
5.50795e-260
2.45756e-232
1.62746e-207
4.14774e-181
1.31511e-161
7.80768e-145
4.33414e-130
5.35404e-117
9.28204e-06
1.08262e-05
1.46063e-05
1.91418e-05
2.35902e-05
2.82985e-05
3.32885e-05
3.88596e-05
4.49759e-05
5.14782e-05
)
;
    }
    topInlet
    {
        type            calculated;
        value           nonuniform 0();
    }
    bottomInlet
    {
        type            calculated;
        value           nonuniform 0();
    }
    outlet
    {
        type            calculated;
        value           nonuniform 0();
    }
    frontBack
    {
        type            empty;
        value           nonuniform 0();
    }
    procBoundary1to0
    {
        type            processor;
        value           nonuniform List<scalar> 
20
(
-5.33371e-272
-2.32138e-311
-2.03127e-313
-4.86422e-315
-2.44562e-316
-1.95687e-317
-9.09252e-318
-6.50457e-268
-1.58082e-202
-1.73363e-148
-4.19753e-05
-0.000137852
-0.000521752
-0.00165
-0.00154216
-0.00155062
-0.00155183
-0.00153923
-0.00144964
-0.00116695
)
;
    }
    procBoundary1to2
    {
        type            processor;
        value           nonuniform List<scalar> 
20
(
9.71085e-116
1.13588e-145
4.09337e-162
4.54928e-163
5.626e-164
8.81624e-165
-1.66282e-158
-1.54254e-140
-1.0831e-133
-1.33908e-131
0.000124475
0.000287013
0.000644917
0.00160035
0.00152872
0.00154884
0.00153602
0.00146144
0.00124686
0.000899016
)
;
    }
}


// ************************************************************************* //
