/*--------------------------------*- C++ -*----------------------------------*\
| =========                 |                                                 |
| \\      /  F ield         | OpenFOAM: The Open Source CFD Toolbox           |
|  \\    /   O peration     | Version:  4.x                                   |
|   \\  /    A nd           | Web:      www.OpenFOAM.org                      |
|    \\/     M anipulation  |                                                 |
\*---------------------------------------------------------------------------*/
FoamFile
{
    version     2.0;
    format      ascii;
    class       volScalarField;
    location    "0.2";
    object      k;
}
// * * * * * * * * * * * * * * * * * * * * * * * * * * * * * * * * * * * * * //

dimensions      [0 2 -2 0 0 0 0];

internalField   nonuniform List<scalar> 
200
(
27.3646
27.1386
26.7309
26.179
25.5244
24.8041
24.0015
23.1902
22.4204
21.714
5.28181
5.6155
5.85233
5.98589
6.03862
6.0261
6.01615
6.00417
5.98628
5.95323
0.917159
1.03535
1.14152
1.22945
1.29798
1.34868
1.38669
1.41642
1.44005
1.46858
0.381019
0.394971
0.40905
0.421627
0.431654
0.438796
0.443254
0.445525
0.4462
0.446517
0.327826
0.324953
0.321649
0.31757
0.312444
0.306106
0.298503
0.289694
0.279838
0.269227
0.269723
0.263877
0.257503
0.25048
0.242838
0.23465
0.225994
0.216961
0.207652
0.198176
0.106006
0.101503
0.0970571
0.0930712
0.0897768
0.0872172
0.085362
0.0841521
0.0834996
0.0832957
0.55285
0.363913
0.24632
0.173785
0.128361
0.0993162
0.0803935
0.0679332
0.059739
0.0544479
2.04616
0.817866
0.396646
0.224764
0.143715
0.100784
0.075998
0.0608459
0.0513026
0.0452868
3.27749
0.982115
0.427054
0.23168
0.144911
0.10018
0.0747417
0.0593359
0.049688
0.0436274
3.26808
0.980532
0.426549
0.231443
0.144768
0.100072
0.0746483
0.0592471
0.0495993
0.0435371
2.04659
0.816075
0.395457
0.224038
0.143208
0.100366
0.0756133
0.0604685
0.0509202
0.0448945
0.56101
0.367457
0.24765
0.17405
0.128098
0.0987738
0.0796883
0.0671185
0.0588384
0.053476
0.104861
0.100335
0.09584
0.0917985
0.0884478
0.0858318
0.0839182
0.0826441
0.0819222
0.0816518
0.267523
0.26163
0.255206
0.24813
0.240439
0.232209
0.223524
0.214476
0.205168
0.195721
0.327158
0.324227
0.320849
0.316677
0.311439
0.304977
0.29724
0.288285
0.278279
0.267558
0.381663
0.395884
0.410143
0.422779
0.432793
0.439869
0.444207
0.446211
0.446522
0.446846
0.931226
1.05094
1.15776
1.24549
1.31372
1.36412
1.40203
1.43075
1.45332
1.48546
5.39791
5.72883
5.96059
6.0855
6.13317
6.12296
6.11606
6.10444
6.08521
6.04406
27.8792
27.645
27.2248
26.6589
25.9892
25.2434
24.419
23.5941
22.8178
22.1083
)
;

boundaryField
{
    walls
    {
        type            kqRWallFunction;
        value           nonuniform List<scalar> 
20
(
27.3646
27.1386
26.7309
26.179
25.5244
24.8041
24.0015
23.1902
22.4204
21.714
27.8792
27.645
27.2248
26.6589
25.9892
25.2434
24.419
23.5941
22.8178
22.1083
)
;
    }
    topInlet
    {
        type            fixedValue;
        value           nonuniform 0();
    }
    bottomInlet
    {
        type            fixedValue;
        value           nonuniform 0();
    }
    outlet
    {
        type            zeroGradient;
    }
    frontBack
    {
        type            empty;
    }
    procBoundary1to0
    {
        type            processor;
        value           nonuniform List<scalar> 
20
(
27.4
4.85307
0.794499
0.368666
0.330598
0.27536
0.109994
0.811067
6.14161
22.7758
22.6899
6.17784
0.827359
0.108798
0.273212
0.329985
0.369005
0.806358
4.97096
27.9174
)
;
    }
    procBoundary1to2
    {
        type            processor;
        value           nonuniform List<scalar> 
20
(
21.0669
5.90289
1.50747
0.448404
0.258315
0.188667
0.0834202
0.0511868
0.041635
0.039959
0.0398665
0.0412317
0.0501555
0.0817145
0.186273
0.256578
0.448832
1.52645
5.98676
21.4578
)
;
    }
}


// ************************************************************************* //
