/*--------------------------------*- C++ -*----------------------------------*\
| =========                 |                                                 |
| \\      /  F ield         | OpenFOAM: The Open Source CFD Toolbox           |
|  \\    /   O peration     | Version:  4.x                                   |
|   \\  /    A nd           | Web:      www.OpenFOAM.org                      |
|    \\/     M anipulation  |                                                 |
\*---------------------------------------------------------------------------*/
FoamFile
{
    version     2.0;
    format      ascii;
    class       volScalarField;
    location    "0.5";
    object      alpha.upper;
}
// * * * * * * * * * * * * * * * * * * * * * * * * * * * * * * * * * * * * * //

dimensions      [0 0 0 0 0 0 0];

internalField   nonuniform List<scalar> 
200
(
1.54148e-321
1.45255e-321
1.36362e-321
1.26481e-321
1.17588e-321
2.17389e-321
2.01579e-321
1.83792e-321
6.28462e-304
1.33574e-271
1.40315e-321
1.3241e-321
1.24505e-321
1.16599e-321
1.08694e-321
1.00789e-321
9.38725e-322
1.73911e-321
1.60077e-321
1.46243e-321
1.36362e-321
1.28457e-321
1.20552e-321
1.12647e-321
1.04742e-321
9.7825e-322
9.09081e-322
8.39912e-322
1.55137e-321
1.42291e-321
1.36362e-321
1.28457e-321
1.20552e-321
1.12647e-321
1.04742e-321
9.68369e-322
8.99199e-322
8.3003e-322
1.54148e-321
1.41303e-321
1.36362e-321
1.28457e-321
1.20552e-321
1.12647e-321
1.04742e-321
9.68369e-322
8.99199e-322
8.3003e-322
1.5316e-321
1.40315e-321
1.36362e-321
1.28457e-321
1.20552e-321
1.12647e-321
1.04742e-321
9.68369e-322
8.99199e-322
8.3003e-322
1.54148e-321
1.41303e-321
1.24505e-321
1.16599e-321
1.08694e-321
1.02766e-321
9.48606e-322
8.79437e-322
8.10268e-322
7.5098e-322
1.38338e-321
-1.27469e-321
3.00392e-321
2.78653e-321
2.57902e-321
2.3814e-321
2.19365e-321
2.01579e-321
3.69561e-321
-3.37941e-321
-3.08297e-321
-2.82606e-321
7.1936e-321
6.52167e-321
5.89914e-321
5.35567e-321
9.74297e-321
8.8833e-321
-8.10268e-321
-7.39122e-321
-6.72917e-321
-6.12641e-321
1.44992e-266
2.46094e-267
4.76658e-268
9.86302e-269
2.04547e-269
4.1331e-270
7.97328e-271
1.44352e-271
2.46971e-272
4.10599e-273
0.995259
0.990024
0.984478
0.979105
0.973733
0.968271
0.96264
0.956711
0.950377
0.94379
1
1
1
1
1
1
1
1
1
1
1
1
1
1
1
1
1
1
1
1
1
1
1
1
1
1
1
1
1
1
1
1
1
1
1
1
1
1
1
1
1
1
1
1
1
1
1
1
1
1
1
1
1
1
1
1
1
1
1
1
1
1
1
1
1
1
1
1
1
1
1
1
1
1
1
1
1
1
1
1
1
1
1
1
1
1
1
1
1
1
)
;

boundaryField
{
    walls
    {
        type            zeroGradient;
    }
    topInlet
    {
        type            fixedValue;
        value           nonuniform 0();
    }
    bottomInlet
    {
        type            fixedValue;
        value           nonuniform 0();
    }
    outlet
    {
        type            inletOutlet;
        inletValue      nonuniform 0();
        value           nonuniform 0();
    }
    frontBack
    {
        type            empty;
    }
    procBoundary1to0
    {
        type            processor;
        value           nonuniform List<scalar> 
20
(
1.19564e-321
1.12647e-321
1.10671e-321
1.09683e-321
1.09683e-321
1.09683e-321
9.88131e-322
2.33199e-321
1.12054e-320
2.22494e-257
1
1
1
1
1
1
1
1
1
1
)
;
    }
    procBoundary1to2
    {
        type            processor;
        value           nonuniform List<scalar> 
20
(
1.62758e-242
4.5424e-314
1.30433e-321
1.29445e-321
1.29445e-321
1.29445e-321
-1.16599e-321
-2.38475e-314
-5.46398e-302
1.38583e-282
0.937227
1
1
1
1
1
1
1
1
1
)
;
    }
}


// ************************************************************************* //
