/*--------------------------------*- C++ -*----------------------------------*\
| =========                 |                                                 |
| \\      /  F ield         | OpenFOAM: The Open Source CFD Toolbox           |
|  \\    /   O peration     | Version:  4.x                                   |
|   \\  /    A nd           | Web:      www.OpenFOAM.org                      |
|    \\/     M anipulation  |                                                 |
\*---------------------------------------------------------------------------*/
FoamFile
{
    version     2.0;
    format      ascii;
    class       volScalarField;
    location    "0.5";
    object      epsilon;
}
// * * * * * * * * * * * * * * * * * * * * * * * * * * * * * * * * * * * * * //

dimensions      [0 2 -3 0 0 0 0];

internalField   nonuniform List<scalar> 
200
(
36716.6
36262.6
35448.5
34356.3
33075.9
31685.8
30160.3
28644.1
27229.7
25953.1
4241.92
4533
4674.11
4674.53
4579.86
4420.19
4287.37
4170.57
4062.47
3955.31
464.127
546.687
610.714
651.65
670.913
672.597
663.988
650.244
633.888
622.701
71.3277
85.8387
99.9179
111.818
120.495
125.693
127.768
127.36
125.164
122.164
24.615
27.086
29.8159
32.5359
34.9863
36.9617
38.3275
39.0265
39.0683
38.5436
38.1986
37.2639
36.1559
34.8958
33.5147
32.0417
30.4989
28.9054
27.2785
25.6363
126.771
103.044
82.6862
66.4303
53.833
44.1719
36.7605
31.0412
26.5859
23.0705
1628.04
827.032
434.633
240.505
140.724
87.0372
56.7746
38.9534
28.0266
21.0717
9567.89
2675.86
923.584
381.001
182.086
97.9538
57.9576
37.079
25.3394
18.3356
21234.4
3891.43
1097.75
412.434
188.349
98.8218
57.56
36.4257
24.6948
17.7631
21133.2
3880.26
1095.6
411.779
188.075
98.6788
57.4714
36.3634
24.647
17.7244
9572.3
2668.89
919.884
379.263
181.196
97.4333
57.6115
36.8251
25.1398
18.1715
1654.62
835.929
437.277
241.001
140.509
86.6138
56.3181
38.5204
27.6315
20.7153
128.226
103.886
83.0931
66.5601
53.7953
44.0366
36.5701
30.8205
26.3486
22.8248
38.9457
37.951
36.7756
35.4425
33.9854
32.4363
30.8197
29.1558
27.4632
25.7636
24.991
27.4984
30.2528
32.9765
35.4093
37.3479
38.66
39.2884
39.2521
38.666
72.741
87.4821
101.683
113.569
122.15
127.207
129.118
128.487
126.052
123.051
476.617
560.313
624.513
664.759
683.279
684.384
675.479
660.888
643.762
635.125
4372.77
4660.61
4794.81
4783.37
4682.03
4525.18
4395.86
4278.98
4169.08
4055.56
37757.1
37282.2
36435.5
35305.4
33983.5
32531.2
30950.6
29395.7
27956.9
26663.1
)
;

boundaryField
{
    walls
    {
        Cmu             0.09;
        kappa           0.41;
        E               9.8;
        type            epsilonWallFunction;
        value           nonuniform List<scalar> 
20
(
36716.6
36262.6
35448.5
34356.3
33075.9
31685.8
30160.3
28644.1
27229.7
25953.1
37757.1
37282.2
36435.5
35305.4
33983.5
32531.2
30950.6
29395.7
27956.9
26663.1
)
;
    }
    topInlet
    {
        type            fixedValue;
        value           nonuniform 0();
    }
    bottomInlet
    {
        type            fixedValue;
        value           nonuniform 0();
    }
    outlet
    {
        type            zeroGradient;
    }
    frontBack
    {
        type            empty;
    }
    procBoundary1to0
    {
        type            processor;
        value           nonuniform List<scalar> 
20
(
36789.8
3785.64
370.897
58.0991
22.5869
38.9326
149.398
3038.36
41188.1
248162
246760
41465.7
3106.71
151.502
39.7304
22.9261
59.2294
381.37
3917.44
37836.7
)
;
    }
    procBoundary1to2
    {
        type            processor;
        value           nonuniform List<scalar> 
20
(
24801.6
3847.15
619.703
119.498
37.6176
24.0019
20.2517
16.4868
13.9518
13.4583
13.4259
13.8132
16.1669
20.0029
24.0819
37.6969
120.455
633.56
3942.14
25495
)
;
    }
}


// ************************************************************************* //
