/*--------------------------------*- C++ -*----------------------------------*\
| =========                 |                                                 |
| \\      /  F ield         | OpenFOAM: The Open Source CFD Toolbox           |
|  \\    /   O peration     | Version:  4.x                                   |
|   \\  /    A nd           | Web:      www.OpenFOAM.org                      |
|    \\/     M anipulation  |                                                 |
\*---------------------------------------------------------------------------*/
FoamFile
{
    version     2.0;
    format      ascii;
    class       volScalarField;
    location    "0.45";
    object      alpha.upper;
}
// * * * * * * * * * * * * * * * * * * * * * * * * * * * * * * * * * * * * * //

dimensions      [0 0 0 0 0 0 0];

internalField   nonuniform List<scalar> 
200
(
6.65306e-68
1.48753e-60
1.39913e-54
1.32859e-51
4.37538e-49
7.46506e-47
1.22453e-22
1.30017e-21
6.54156e-21
1.22242e-20
2.27834e-88
1.23442e-78
7.64311e-71
1.24565e-67
7.20372e-65
2.25222e-62
6.38894e-22
6.21566e-21
2.75221e-20
4.90939e-20
1.83629e-104
6.87829e-93
1.08603e-83
2.30934e-80
1.89544e-77
8.86284e-75
5.93574e-21
5.13787e-20
2.00777e-19
3.50161e-19
2.70319e-114
8.0036e-102
6.36579e-92
1.08602e-88
8.33371e-86
4.66207e-83
9.43348e-20
6.99742e-19
2.37178e-18
4.01957e-18
3.58083e-118
1.8545e-105
1.56782e-95
1.29324e-92
5.63663e-90
5.65975e-87
2.79293e-18
1.66614e-17
4.73203e-17
7.70334e-17
1.51543e-117
2.18918e-105
6.98832e-96
2.88357e-93
1.11483e-90
1.19001e-87
1.94451e-16
8.3288e-16
1.86989e-15
2.72461e-15
6.25662e-115
1.01914e-102
1.15959e-93
2.57214e-91
2.87788e-89
5.41794e-87
2.51737e-14
2.75935e-14
2.69746e-14
2.77237e-14
-5.65307e-111
-3.03366e-101
4.62428e-93
4.62599e-93
5.02147e-93
-1.74401e-12
-4.65192e-12
1.10905e-13
1.53223e-13
1.68075e-13
-2.89525e-108
-6.90282e-98
-3.32832e-89
-4.84744e-10
-1.83789e-09
-3.92632e-09
-5.87135e-09
5.30774e-10
8.5939e-10
9.31931e-10
-7.22177e-107
0.000435895
0.00201342
0.00487445
0.0089557
0.0143786
0.0203006
0.026643
0.0326461
0.0426612
0.880045
0.880926
0.882831
0.885584
0.889054
0.893301
0.897647
0.902076
0.906099
0.912499
1
1
1
1
1
1
1
1
1
1
1
1
1
1
1
1
1
1
1
1
1
1
1
1
1
1
1
1
1
1
1
1
1
1
1
1
1
1
1
1
1
1
1
1
1
1
1
1
1
1
1
1
1
1
1
1
1
1
1
1
1
1
1
1
1
1
1
1
1
1
1
1
1
1
1
1
1
1
1
1
1
1
1
1
1
1
1
1
1
1
)
;

boundaryField
{
    walls
    {
        type            zeroGradient;
    }
    topInlet
    {
        type            fixedValue;
        value           nonuniform 0();
    }
    bottomInlet
    {
        type            fixedValue;
        value           nonuniform 0();
    }
    outlet
    {
        type            inletOutlet;
        inletValue      uniform 0;
        value           nonuniform List<scalar> 
20
(
1.22242e-20
4.90939e-20
3.50161e-19
4.01957e-18
7.70334e-17
2.72461e-15
2.77237e-14
1.68075e-13
9.31931e-10
0.0426612
0.912499
1
1
1
1
1
1
1
1
1
)
;
    }
    frontBack
    {
        type            empty;
    }
    procBoundary3to2
    {
        type            processor;
        value           nonuniform List<scalar> 
20
(
2.72541e-76
2.18202e-99
1.81589e-117
3.66092e-128
3.94831e-132
3.74863e-131
-2.08176e-127
-4.8484e-122
-2.58855e-119
-6.31466e-118
0.881176
1
1
1
1
1
1
1
1
1
)
;
    }
}


// ************************************************************************* //
