/*--------------------------------*- C++ -*----------------------------------*\
| =========                 |                                                 |
| \\      /  F ield         | OpenFOAM: The Open Source CFD Toolbox           |
|  \\    /   O peration     | Version:  4.x                                   |
|   \\  /    A nd           | Web:      www.OpenFOAM.org                      |
|    \\/     M anipulation  |                                                 |
\*---------------------------------------------------------------------------*/
FoamFile
{
    version     2.0;
    format      ascii;
    class       volScalarField;
    location    "0.5";
    object      alpha.upper;
}
// * * * * * * * * * * * * * * * * * * * * * * * * * * * * * * * * * * * * * //

dimensions      [0 0 0 0 0 0 0];

internalField   nonuniform List<scalar> 
200
(
1.33441e-74
1.99835e-66
8.59075e-60
1.40869e-56
7.39382e-54
1.91608e-51
1.22453e-22
1.30017e-21
6.54156e-21
1.22242e-20
1.5096e-97
1.02916e-86
4.68816e-78
1.31794e-74
1.22756e-71
5.95175e-69
6.38894e-22
6.21566e-21
2.75221e-20
4.90939e-20
1.2739e-115
9.76407e-103
1.64028e-92
5.95537e-89
7.93067e-86
5.84432e-83
5.93574e-21
5.13787e-20
2.00777e-19
3.50161e-19
1.09756e-126
8.34185e-113
8.39901e-102
2.2926e-98
2.74923e-95
2.35721e-92
9.43348e-20
6.99742e-19
2.37178e-18
4.01957e-18
4.71816e-131
6.5543e-117
6.73236e-106
7.67551e-103
4.70618e-100
6.38923e-97
2.79293e-18
1.66614e-17
4.73203e-17
7.70334e-17
2.18939e-130
7.22121e-117
2.54713e-106
1.32634e-103
7.9232e-101
9.42134e-98
1.94451e-16
8.3288e-16
1.86989e-15
2.72461e-15
2.29953e-127
6.72832e-114
6.98308e-104
1.78364e-101
2.29535e-99
4.1703e-97
2.51737e-14
2.75935e-14
2.69746e-14
2.77237e-14
-4.04633e-123
-3.23245e-112
4.08165e-103
4.0831e-103
4.41512e-103
-1.74401e-12
-4.65192e-12
1.10905e-13
1.53223e-13
1.68075e-13
-2.48782e-120
-8.58111e-109
-3.21038e-99
-4.84744e-10
-1.83789e-09
-3.92632e-09
-5.87135e-09
5.30774e-10
8.5939e-10
9.31931e-10
-6.94977e-119
0.000435895
0.00201342
0.00487445
0.0089557
0.0143786
0.0203006
0.026643
0.0326461
0.0426612
0.880045
0.880926
0.882831
0.885584
0.889054
0.893301
0.897647
0.902076
0.906099
0.912499
1
1
1
1
1
1
1
1
1
1
1
1
1
1
1
1
1
1
1
1
1
1
1
1
1
1
1
1
1
1
1
1
1
1
1
1
1
1
1
1
1
1
1
1
1
1
1
1
1
1
1
1
1
1
1
1
1
1
1
1
1
1
1
1
1
1
1
1
1
1
1
1
1
1
1
1
1
1
1
1
1
1
1
1
1
1
1
1
1
1
)
;

boundaryField
{
    walls
    {
        type            zeroGradient;
    }
    topInlet
    {
        type            fixedValue;
        value           nonuniform 0();
    }
    bottomInlet
    {
        type            fixedValue;
        value           nonuniform 0();
    }
    outlet
    {
        type            inletOutlet;
        inletValue      uniform 0;
        value           nonuniform List<scalar> 
20
(
1.22242e-20
4.90939e-20
3.50161e-19
4.01957e-18
7.70334e-17
2.72461e-15
2.77237e-14
1.68075e-13
9.31931e-10
0.0426612
0.912499
1
1
1
1
1
1
1
1
1
)
;
    }
    frontBack
    {
        type            empty;
    }
    procBoundary3to2
    {
        type            processor;
        value           nonuniform List<scalar> 
20
(
6.26381e-84
8.29821e-110
4.29786e-130
4.09204e-142
1.40538e-146
1.63758e-145
-3.15368e-141
-1.80303e-135
-1.21181e-132
-3.30976e-131
0.881176
1
1
1
1
1
1
1
1
1
)
;
    }
}


// ************************************************************************* //
