/*--------------------------------*- C++ -*----------------------------------*\
| =========                 |                                                 |
| \\      /  F ield         | OpenFOAM: The Open Source CFD Toolbox           |
|  \\    /   O peration     | Version:  4.x                                   |
|   \\  /    A nd           | Web:      www.OpenFOAM.org                      |
|    \\/     M anipulation  |                                                 |
\*---------------------------------------------------------------------------*/
FoamFile
{
    version     2.0;
    format      ascii;
    class       volScalarField;
    location    "0.5";
    object      p;
}
// * * * * * * * * * * * * * * * * * * * * * * * * * * * * * * * * * * * * * //

dimensions      [1 -1 -2 0 0 0 0];

internalField   nonuniform List<scalar> 
200
(
2594.84
2499.27
2385.82
2277.33
2199.1
2131.34
2073.76
1991.49
2101.79
1349.51
-25.5548
-0.661544
16.017
33.6048
53.145
65.1763
73.0221
83.7626
64.8585
11.1244
1022.56
981.623
933.957
893.928
867.534
841.775
819.866
790.722
834.927
513.448
527.592
534.279
527.62
525.068
532.635
532.825
529.742
521.853
532.86
216.492
729.833
700.482
659.569
630.323
615.859
597.568
580.55
560.737
572.86
240.411
563.2
557.429
543.833
533.248
534.103
531.488
524.569
512.013
518.646
172.454
621.541
599.962
569.63
547.412
535.236
516.513
500.166
482.856
484.862
143.214
554.599
539.6
515.799
497.8
489.618
479.299
470.466
455.311
457.82
115.654
547.755
532.187
507.932
489.945
482.133
469.889
459.447
443.69
446.186
103.537
543.599
527.783
503.267
485.027
476.896
464.782
454.16
438.29
440.814
97.9953
540.207
524.358
499.799
481.511
473.304
461.308
450.692
434.837
437.37
94.5026
533.768
518.088
493.667
475.52
467.436
455.577
445.036
429.315
431.857
88.9856
518.025
503.264
479.529
462.005
454.509
443.025
432.668
417.36
419.986
77.207
533.869
511.398
480.676
457.003
444.918
429.549
413.909
395.801
397.429
55.6335
415.693
409.078
392.895
383.873
382.589
375.571
371.557
359.032
364.934
15.6316
520.564
490.537
450.645
419.202
403.37
384.335
367.938
347.128
358.84
24.9805
259.697
264.669
256.369
253
259.282
257.458
255.341
247.311
257.951
-62.1333
693.918
651.472
602.189
559.964
531.558
503.406
480.138
449.593
492.66
169.474
-414.155
-389.617
-372.979
-355.27
-335.76
-323.838
-314.851
-303.81
-321.751
-379.32
2159.39
2055.78
1934.34
1818.49
1733.75
1658.33
1595.81
1510.24
1616.74
860.239
)
;

boundaryField
{
    walls
    {
        type            calculated;
        value           nonuniform List<scalar> 
20
(
247.212
247.212
247.212
247.212
247.212
247.212
247.212
247.212
247.212
247.212
-244.759
-244.759
-244.759
-244.759
-244.759
-244.759
-244.759
-244.759
-244.759
-244.759
)
;
    }
    topInlet
    {
        type            calculated;
        value           nonuniform 0();
    }
    bottomInlet
    {
        type            calculated;
        value           nonuniform 0();
    }
    outlet
    {
        type            calculated;
        value           nonuniform List<scalar> 
20
(
231.761
200.86
169.958
139.057
108.155
77.2537
44.4387
19.0147
7.21387
1.73569
-1.72071
-7.14231
-18.826
-43.9979
-76.4873
-107.082
-137.677
-168.272
-198.867
-229.462
)
;
    }
    frontBack
    {
        type            empty;
    }
    procBoundary3to2
    {
        type            processor;
        value           nonuniform List<scalar> 
20
(
2693.26
-56.2921
1067.1
513.428
762.389
565.043
643.197
568.797
562.598
558.695
555.326
548.676
531.85
556.299
418.836
552.102
248.773
739.145
-443.921
2265.28
)
;
    }
}


// ************************************************************************* //
