/*--------------------------------*- C++ -*----------------------------------*\
| =========                 |                                                 |
| \\      /  F ield         | OpenFOAM: The Open Source CFD Toolbox           |
|  \\    /   O peration     | Version:  4.x                                   |
|   \\  /    A nd           | Web:      www.OpenFOAM.org                      |
|    \\/     M anipulation  |                                                 |
\*---------------------------------------------------------------------------*/
FoamFile
{
    version     2.0;
    format      ascii;
    class       surfaceScalarField;
    location    "0.5";
    object      alphaPhi;
}
// * * * * * * * * * * * * * * * * * * * * * * * * * * * * * * * * * * * * * //

dimensions      [0 3 -1 0 0 0 0];

internalField   nonuniform List<scalar> 
370
(
1.42952e-245
-1.5935e-318
2.23806e-219
-7.97326e-285
8.71823e-196
-1.99734e-254
1.45959e-174
-4.44228e-227
1.66224e-155
-1.56954e-202
1.90497e-138
-1.56e-180
3.24693e-123
-7.48972e-161
1.11902e-109
-2.67963e-143
1.08748e-97
-1.13181e-127
-8.31103e-114
5.55377e-317
0
2.3273e-283
0
4.97569e-253
-5.08155e-293
9.551e-226
-3.98978e-263
2.93236e-201
-6.82474e-236
2.54218e-179
-3.56639e-211
1.06851e-159
-8.51024e-189
3.34944e-142
-1.26035e-168
1.24083e-126
-1.70427e-150
-2.94349e-134
0
0
4.94066e-324
0
3.54487e-291
-4.18538e-310
2.14503e-261
-1.40213e-279
2.94114e-234
-8.45234e-252
1.2639e-209
-1.98369e-226
2.52003e-187
-1.69174e-203
3.14229e-167
-1.21143e-182
3.59955e-149
-1.06604e-163
-1.50669e-146
0
0
0
0
3.66986e-307
1.38188e-309
3.94191e-277
1.01791e-279
1.36912e-249
1.91199e-252
2.17388e-224
1.77342e-228
1.36745e-201
-6.85445e-209
7.45783e-181
-8.18863e-188
5.12465e-162
-9.13938e-169
-1.70729e-151
0
0
0
0
8.57288e-308
5.08117e-310
5.78217e-278
3.13444e-280
9.73646e-251
4.88571e-253
8.06453e-227
3.73693e-229
5.05485e-206
2.15881e-208
2.60838e-185
9.80086e-188
1.71347e-166
5.18495e-169
3.96575e-152
0
0
0
0
-2.33973e-307
-2.13332e-309
-2.14695e-277
-1.91744e-279
-1.75895e-250
-1.54814e-252
-4.73732e-226
-4.1089e-228
-2.44627e-204
-2.09036e-206
8.85538e-184
7.36695e-186
4.13301e-165
3.2891e-167
1.76904e-150
0
0
-4.56764e-320
-5.13828e-322
-3.84412e-289
-4.07778e-291
-3.36089e-261
-3.35748e-263
-4.02244e-236
-3.77153e-238
-1.63756e-213
-1.43257e-215
-4.01779e-193
-3.26827e-195
-6.97049e-175
-5.23312e-177
-1.51669e-158
-1.03983e-160
-3.07399e-146
-1.56434e-317
-2.43387e-319
-2.10065e-290
-2.9896e-292
-2.63973e-265
-3.47329e-267
-3.87858e-242
-4.73049e-244
-6.5644e-221
-7.39252e-223
-2.20585e-201
-2.27373e-203
-2.00549e-183
-1.885e-185
-4.24757e-167
-3.61104e-169
-3.25982e-152
-2.47604e-154
-8.49959e-141
-1.60369e-305
-2.22788e-307
-5.40948e-281
-6.97891e-283
-6.73206e-258
-8.20259e-260
-2.98396e-236
-3.43777e-238
-3.67922e-216
-3.95945e-218
-1.79669e-197
-1.76732e-199
-4.13087e-180
-3.68199e-182
-2.99053e-164
-2.37891e-166
-1.18246e-149
-8.21266e-152
-2.27372e-138
1.00622e-277
5.08849e-277
1.54065e-278
8.5215e-278
-1.57428e-255
-1.3565e-257
-2.50047e-234
-2.22035e-236
-1.50686e-214
-1.31469e-216
-4.6702e-196
-3.75575e-198
-7.88361e-179
-5.70277e-181
-4.46017e-163
-2.79293e-165
-1.51355e-148
-7.75886e-151
-1.72561e-137
0.000126406
-1.92723e-06
0.000128005
-1.59878e-06
0.000129291
-1.28636e-06
0.000130316
-1.02424e-06
0.00013116
-8.44259e-07
0.000131921
-7.60881e-07
0.000132634
-7.12669e-07
0.000133334
-7.00481e-07
0.000134055
-7.20677e-07
-8.35431e-07
0.000293177
-8.09099e-06
0.000298806
-7.22753e-06
0.000303974
-6.45532e-06
0.000308735
-5.78501e-06
0.000313128
-5.23728e-06
0.000317185
-4.81803e-06
0.00032093
-4.45756e-06
0.000324376
-4.14582e-06
0.000327527
-3.87188e-06
-3.69094e-06
0.000654127
-1.73004e-05
0.000662821
-1.59224e-05
0.00067103
-1.4664e-05
0.000678776
-1.35307e-05
0.000686084
-1.25455e-05
0.000692972
-1.17062e-05
0.000699449
-1.09346e-05
0.000705504
-1.02002e-05
0.000711116
-9.48468e-06
-8.82706e-06
0.00159627
-1.32172e-05
0.00159266
-1.23116e-05
0.00158967
-1.16744e-05
0.00158741
-1.12709e-05
0.00158595
-1.10917e-05
0.00158532
-1.10727e-05
0.00158545
-1.10675e-05
0.00158621
-1.09606e-05
0.00158742
-1.06868e-05
-1.02092e-05
0.00152501
-9.50769e-06
0.00152066
-7.96049e-06
0.00151576
-6.77527e-06
0.0015104
-5.90701e-06
0.00150464
-5.3401e-06
0.00149855
-4.9835e-06
0.00149215
-4.65887e-06
0.00148534
-4.15565e-06
0.00147802
-3.36776e-06
-2.18916e-06
0.00154696
-7.61892e-06
0.00154431
-5.31481e-06
0.00154076
-3.2217e-06
0.00153617
-1.3195e-06
0.00153039
4.42818e-07
0.00152322
2.18327e-06
0.00151444
4.12288e-06
0.0015038
6.47695e-06
0.00149104
9.39962e-06
1.30448e-05
0.00153139
-2.98847e-06
0.00152537
7.04643e-07
0.00151778
4.37639e-06
0.00150832
8.13476e-06
0.00149681
1.19552e-05
0.00148303
1.5961e-05
0.00146677
2.03882e-05
0.00144775
2.54916e-05
0.00142581
3.1338e-05
3.80135e-05
0.00144686
1.15893e-05
0.00143029
1.72761e-05
0.00141182
2.28442e-05
0.00139127
2.86901e-05
0.0013688
3.44231e-05
0.00134434
4.04232e-05
0.00131789
4.68407e-05
0.0012895
5.38763e-05
0.00125923
6.16113e-05
7.01014e-05
0.00122132
3.71357e-05
0.00119537
4.32287e-05
0.00116886
4.93464e-05
0.00114186
5.56924e-05
0.00111403
6.22516e-05
0.00108529
6.91626e-05
0.00105559
7.65466e-05
0.00102493
8.45385e-05
0.000993385
9.31519e-05
0.00010239
0.000878082
0.000856311
0.000833394
0.000809198
0.000783645
0.000756802
0.000728851
0.000700064
0.000670726
)
;

boundaryField
{
    walls
    {
        type            calculated;
        value           nonuniform List<scalar> 
20
(
9.1269e-247
1.64147e-220
7.31032e-197
1.39424e-175
1.80365e-156
2.34357e-139
4.51921e-124
1.76019e-110
1.93112e-98
8.08286e-88
5.80695e-05
6.49989e-05
7.22636e-05
7.98891e-05
8.78042e-05
9.60057e-05
0.000104497
0.000113325
0.00012249
0.000132004
)
;
    }
    topInlet
    {
        type            calculated;
        value           nonuniform 0();
    }
    bottomInlet
    {
        type            calculated;
        value           nonuniform 0();
    }
    outlet
    {
        type            calculated;
        value           nonuniform 0();
    }
    frontBack
    {
        type            empty;
        value           nonuniform 0();
    }
    procBoundary2to1
    {
        type            processor;
        value           nonuniform List<scalar> 
20
(
-1.20124e-274
0
0
0
0
0
0
0
0
-2.85541e-268
-0.000124475
-0.000287013
-0.000644917
-0.00160035
-0.00152872
-0.00154884
-0.00153602
-0.00146144
-0.00124686
-0.000899016
)
;
    }
    procBoundary2to3
    {
        type            processor;
        value           nonuniform List<scalar> 
20
(
4.03388e-87
7.99416e-113
5.28174e-133
5.7398e-145
2.07726e-149
2.41203e-148
-5.02086e-144
-1.29265e-138
-4.00497e-136
-5.07154e-135
0.00013489
0.000330382
0.000716253
0.0015888
0.00147
0.0014758
0.00140085
0.00122714
0.000961096
0.000641112
)
;
    }
}


// ************************************************************************* //
