/*--------------------------------*- C++ -*----------------------------------*\
| =========                 |                                                 |
| \\      /  F ield         | OpenFOAM: The Open Source CFD Toolbox           |
|  \\    /   O peration     | Version:  4.x                                   |
|   \\  /    A nd           | Web:      www.OpenFOAM.org                      |
|    \\/     M anipulation  |                                                 |
\*---------------------------------------------------------------------------*/
FoamFile
{
    version     2.0;
    format      ascii;
    class       volScalarField;
    location    "0.5";
    object      nut;
}
// * * * * * * * * * * * * * * * * * * * * * * * * * * * * * * * * * * * * * //

dimensions      [0 2 -1 0 0 0 0];

internalField   nonuniform List<scalar> 
200
(
0.000802827
0.00116282
0.00141263
0.00158353
0.00169678
0.00176852
0.00181101
0.00183177
0.00183825
0.00183661
0.000205388
0.000201412
0.000243138
0.00029594
0.000349146
0.000399323
0.000444636
0.000486642
0.000525191
0.000559934
0.000545328
0.000305803
0.000203571
0.000161254
0.000144329
0.000138793
0.00013902
0.000142281
0.000147238
0.000153171
0.000819426
0.000731865
0.000611817
0.00049518
0.000402893
0.000335875
0.000288178
0.000253853
0.000228987
0.000210542
0.000842797
0.000816609
0.000775842
0.000724728
0.000669025
0.000613639
0.000561658
0.000514525
0.000472634
0.000435499
0.000673503
0.000506468
0.000398834
0.000330202
0.000283861
0.000250531
0.000225203
0.000205107
0.000188706
0.00017528
7.22892e-05
3.58928e-05
2.42278e-05
1.83262e-05
1.46561e-05
1.212e-05
1.02698e-05
8.89485e-06
7.89956e-06
7.28852e-06
9.00422e-06
1.27023e-05
1.54871e-05
1.72321e-05
1.8196e-05
1.86965e-05
1.89986e-05
1.92698e-05
1.95703e-05
1.94857e-05
9.80502e-05
0.000114662
0.0001107
0.000104227
9.89135e-05
9.49635e-05
9.18973e-05
8.93197e-05
8.70004e-05
8.24206e-05
0.000445032
0.00036865
0.000310473
0.00027601
0.000254392
0.000239224
0.000226878
0.000215413
0.000203471
0.000188128
0.000447011
0.000369266
0.000310682
0.000276113
0.000254455
0.000239213
0.000226741
0.00021511
0.000203018
0.000187773
9.93824e-05
0.000115849
0.000111625
0.000105007
9.96197e-05
9.56195e-05
9.25032e-05
8.98692e-05
8.74885e-05
8.28377e-05
9.14341e-06
1.29818e-05
1.58341e-05
1.76062e-05
1.85746e-05
1.90719e-05
1.9372e-05
1.96448e-05
1.9946e-05
1.98303e-05
6.88583e-05
3.41681e-05
2.30659e-05
1.74511e-05
1.39634e-05
1.15586e-05
9.81043e-06
8.51817e-06
7.59108e-06
7.03184e-06
0.000664821
0.000494998
0.00038784
0.000320287
0.000274939
0.000242413
0.000217722
0.000198138
0.000182159
0.000169091
0.000842151
0.000814443
0.000771784
0.000718905
0.000661876
0.000605683
0.000553336
0.000506162
0.00046442
0.000427467
0.000817491
0.00072626
0.000603677
0.000486665
0.000395159
0.000329241
0.000282542
0.000249083
0.00022494
0.000206904
0.000534654
0.000297498
0.000198777
0.000158464
0.000142607
0.000137751
0.000138431
0.000142016
0.000147234
0.000153445
0.000202682
0.000202074
0.000245581
0.000299548
0.000353696
0.000404515
0.000450573
0.000493375
0.000532571
0.000567701
0.00081554
0.00118086
0.00143323
0.00160504
0.00171824
0.00178942
0.0018309
0.00185053
0.00185612
0.00185387
)
;

boundaryField
{
    walls
    {
        type            nutkWallFunction;
        Cmu             0.09;
        kappa           0.41;
        E               9.8;
        value           uniform 0;
    }
    topInlet
    {
        type            calculated;
        value           uniform 0.000851986;
    }
    bottomInlet
    {
        type            calculated;
        value           uniform 0.000851986;
    }
    outlet
    {
        type            calculated;
        value           nonuniform 0();
    }
    frontBack
    {
        type            empty;
    }
    procBoundary0to1
    {
        type            processor;
        value           nonuniform List<scalar> 
20
(
0.00183552
0.000591896
0.000163115
0.000183179
0.000392944
0.000171408
7.97784e-06
1.68963e-05
3.93826e-05
4.55288e-05
4.54846e-05
3.9381e-05
1.71193e-05
7.7178e-06
0.000165389
0.000385455
0.000180228
0.000163751
0.000599705
0.0018527
)
;
    }
}


// ************************************************************************* //
