/*--------------------------------*- C++ -*----------------------------------*\
| =========                 |                                                 |
| \\      /  F ield         | OpenFOAM: The Open Source CFD Toolbox           |
|  \\    /   O peration     | Version:  4.x                                   |
|   \\  /    A nd           | Web:      www.OpenFOAM.org                      |
|    \\/     M anipulation  |                                                 |
\*---------------------------------------------------------------------------*/
FoamFile
{
    version     2.0;
    format      ascii;
    class       surfaceScalarField;
    location    "0.2";
    object      alphaPhi;
}
// * * * * * * * * * * * * * * * * * * * * * * * * * * * * * * * * * * * * * //

dimensions      [0 3 -1 0 0 0 0];

internalField   nonuniform List<scalar> 
370
(
1.25931e-37
-1.96585e-46
1.98655e-34
-3.6995e-42
8.82753e-32
-1.1237e-38
4.12738e-30
-9.3492e-37
9.93781e-29
-3.87358e-35
1.56908e-27
-1.04253e-33
7.61637e-26
-7.45688e-26
7.60736e-25
-7.07058e-25
3.96344e-24
-3.16456e-24
-3.32025e-24
1.66116e-45
-8.92235e-53
2.75303e-41
-1.05234e-47
7.60923e-38
-1.32437e-43
6.33272e-36
-1.56764e-41
2.59326e-34
-9.25817e-40
6.90721e-33
-3.59691e-38
4.89959e-25
-5.64527e-25
4.64824e-24
-4.86534e-24
1.99483e-23
-1.84646e-23
-1.81851e-23
1.36635e-51
-1.08756e-56
1.38521e-46
-3.42986e-51
1.55495e-42
-9.51406e-47
1.80569e-40
-1.27727e-44
1.03444e-38
-8.80714e-43
3.91025e-37
-5.31226e-41
6.00988e-24
-6.57441e-24
5.08012e-23
-4.96566e-23
1.93717e-22
-1.6138e-22
-1.57884e-22
3.33236e-55
-1.54952e-58
8.59057e-50
-7.26746e-53
2.03707e-45
-2.65346e-48
2.58577e-43
-3.49579e-46
1.67501e-41
-2.38871e-44
9.54917e-40
-5.08093e-42
1.12922e-22
-1.19497e-22
8.19731e-22
-7.56465e-22
2.72045e-21
-2.0621e-21
-1.99409e-21
1.31674e-56
4.54576e-60
4.52014e-51
-1.4467e-53
1.28845e-46
-6.90644e-49
1.49108e-44
-9.52625e-47
9.0154e-43
-6.50009e-45
1.71904e-40
-4.16882e-42
3.69913e-21
-3.81862e-21
2.16858e-20
-1.87432e-20
6.05644e-20
-4.09407e-20
-3.91357e-20
3.51207e-56
2.26447e-58
8.14937e-51
4.26217e-53
1.56621e-46
5.47636e-49
1.39441e-44
2.01763e-47
7.02056e-43
-2.50546e-45
3.53928e-40
-7.78026e-42
2.70418e-19
-2.74237e-19
1.146e-18
-9.02142e-19
2.54654e-18
-1.48146e-18
-1.25436e-18
1.42221e-55
7.55408e-58
1.28143e-49
5.64175e-52
2.31294e-45
7.64339e-48
1.74216e-43
3.54879e-46
6.84352e-42
6.76658e-45
3.80047e-39
8.78157e-44
7.73976e-17
-7.76719e-17
1.82963e-16
-1.46729e-16
2.98045e-16
-2.56396e-16
-2.70834e-16
-2.17304e-53
-1.18352e-55
-1.81029e-49
-7.6158e-52
3.3867e-46
9.55525e-49
3.80507e-46
6.45408e-46
8.10685e-46
6.71478e-45
1.87099e-13
-1.87099e-13
4.77267e-13
-4.45295e-13
8.04989e-13
-7.56729e-13
9.77261e-13
-9.84614e-13
-9.64344e-13
-2.05338e-51
-8.56747e-54
-7.79078e-47
-1.92963e-49
-1.34287e-42
-9.30895e-46
1.53141e-10
-1.53141e-10
6.39531e-10
-4.89548e-10
1.43889e-09
-8.0964e-10
2.21254e-09
-7.91737e-10
3.06097e-09
-8.67878e-10
3.62581e-09
-5.84889e-10
1.4231e-09
-1.32482e-50
-1.52711e-53
1.29291e-07
-1.29291e-07
4.90483e-07
-3.61192e-07
1.0435e-06
-5.53173e-07
1.79391e-06
-7.50891e-07
2.73267e-06
-9.39559e-07
3.70434e-06
-9.72445e-07
4.70949e-06
-1.006e-06
5.76109e-06
-1.05217e-06
-9.62889e-07
0.000135911
-1.03512e-06
0.000137071
-1.28939e-06
0.000138217
-1.50722e-06
0.000139265
-1.60084e-06
0.000140265
-1.7505e-06
0.00014122
-1.89529e-06
0.000142026
-1.77838e-06
0.000142725
-1.70486e-06
0.00014336
-1.68696e-06
-1.51577e-06
0.000332938
-3.59038e-06
0.000335171
-3.5232e-06
0.000337002
-3.33776e-06
0.000338327
-2.92567e-06
0.000339257
-2.68114e-06
0.000339833
-2.47077e-06
0.000340075
-2.02068e-06
0.000340068
-1.6978e-06
0.000339919
-1.53824e-06
-1.35186e-06
0.000720875
-8.21279e-06
0.000724913
-7.56132e-06
0.000728175
-6.59952e-06
0.000730461
-5.21201e-06
0.000731969
-4.18864e-06
0.000732748
-3.25055e-06
0.000732842
-2.11416e-06
0.000732353
-1.20863e-06
0.000731746
-9.31962e-07
-6.78446e-07
0.00159009
-9.49973e-06
0.00159094
-8.41497e-06
0.00159092
-6.58301e-06
0.00158986
-4.15017e-06
0.00158774
-2.06337e-06
0.00158443
5.09221e-08
0.00157991
2.41049e-06
0.00157413
4.57313e-06
0.00156865
4.54717e-06
3.28551e-06
0.00146103
-5.30377e-07
0.00145081
1.80394e-06
0.00143934
4.89327e-06
0.00142742
7.77162e-06
0.00141475
1.06058e-05
0.00140124
1.35547e-05
0.00138697
1.66821e-05
0.00137194
1.96021e-05
0.00135753
1.89624e-05
1.15612e-05
0.00145784
1.74356e-05
0.00143696
2.2679e-05
0.00141381
2.80413e-05
0.00139054
3.10423e-05
0.00136695
3.42039e-05
0.00134321
3.72912e-05
0.00131959
4.03011e-05
0.0012962
4.29943e-05
0.00127401
4.11468e-05
2.33535e-05
0.00137277
4.55107e-05
0.00134175
5.37007e-05
0.00130904
6.07459e-05
0.00127778
6.23047e-05
0.00124759
6.44008e-05
0.00121863
6.62512e-05
0.00119105
6.78722e-05
0.00116487
6.91805e-05
0.00113981
6.62078e-05
3.70837e-05
0.00119335
7.9297e-05
0.00115808
8.89752e-05
0.00112258
9.62443e-05
0.00108999
9.48909e-05
0.00105964
9.47578e-05
0.00103144
9.44513e-05
0.0010053
9.40073e-05
0.000980944
9.3539e-05
0.000956422
9.07293e-05
5.00868e-05
0.000928199
0.000112194
0.000894749
0.000122425
0.000861754
0.00012924
0.00083218
0.000124465
0.00080536
0.000121578
0.000781034
0.000118777
0.000758778
0.000116263
0.000739195
0.000113122
0.000715673
0.000114252
6.60387e-05
0.00061147
0.000581749
0.000552528
0.000526829
0.000504299
0.000484369
0.000466401
0.000451492
0.000429737
)
;

boundaryField
{
    walls
    {
        type            calculated;
        value           nonuniform List<scalar> 
20
(
2.84541e-38
5.06664e-35
2.47177e-32
1.15005e-30
2.77938e-29
4.407e-28
2.15245e-26
2.12021e-25
1.23253e-24
3.24333e-24
0.000141836
0.000152146
0.000158461
0.000150164
0.000144108
0.000138707
0.000134231
0.000128032
0.000136007
8.03443e-05
)
;
    }
    topInlet
    {
        type            calculated;
        value           nonuniform 0();
    }
    bottomInlet
    {
        type            calculated;
        value           nonuniform 0();
    }
    outlet
    {
        type            calculated;
        value           nonuniform List<scalar> 
20
(
1.68785e-23
3.48136e-23
3.33416e-22
4.55666e-21
9.77061e-20
3.68858e-18
3.12022e-16
6.8207e-13
2.17708e-09
6.72542e-06
0.000143913
0.000339756
0.000731073
0.00156469
0.00134925
0.00126222
0.00112608
0.000943419
0.000699721
0.000415431
)
;
    }
    frontBack
    {
        type            empty;
        value           nonuniform 0();
    }
    procBoundary3to2
    {
        type            processor;
        value           nonuniform List<scalar> 
20
(
-2.73594e-41
-2.64245e-50
-3.00461e-57
-2.92141e-61
-1.02139e-62
-3.37742e-62
4.21394e-61
4.8861e-58
3.78994e-56
2.37283e-55
-0.00013489
-0.000330382
-0.000716253
-0.0015888
-0.00147
-0.0014758
-0.00140085
-0.00122714
-0.000961096
-0.000641112
)
;
    }
}


// ************************************************************************* //
