/*--------------------------------*- C++ -*----------------------------------*\
| =========                 |                                                 |
| \\      /  F ield         | OpenFOAM: The Open Source CFD Toolbox           |
|  \\    /   O peration     | Version:  4.x                                   |
|   \\  /    A nd           | Web:      www.OpenFOAM.org                      |
|    \\/     M anipulation  |                                                 |
\*---------------------------------------------------------------------------*/
FoamFile
{
    version     2.0;
    format      ascii;
    class       volScalarField;
    location    "0.2";
    object      p_rgh;
}
// * * * * * * * * * * * * * * * * * * * * * * * * * * * * * * * * * * * * * //

dimensions      [1 -1 -2 0 0 0 0];

internalField   nonuniform List<scalar> 
200
(
2363.08
2267.51
2154.06
2045.57
1967.34
1899.58
1842
1759.73
1870.03
1117.75
-226.415
-201.521
-184.843
-167.255
-147.715
-135.683
-127.838
-117.097
-136.001
-189.735
852.598
811.664
763.999
723.97
697.576
671.817
649.908
620.763
664.969
343.489
388.535
395.222
388.563
386.011
393.579
393.769
390.685
382.796
393.803
77.4354
621.678
592.327
551.414
522.168
507.704
489.413
472.394
452.582
464.705
132.255
485.947
480.175
466.579
455.994
456.85
454.234
447.315
434.759
441.392
95.2004
577.102
555.523
525.191
502.973
490.797
472.074
455.728
438.417
440.423
98.7748
535.584
520.586
496.784
478.786
470.604
460.284
451.451
436.296
438.805
96.6389
540.541
524.973
500.719
482.731
474.919
462.676
452.233
436.476
438.972
96.3232
541.862
526.046
501.531
483.291
475.16
463.046
452.424
436.554
439.078
96.2596
541.929
526.079
501.52
483.232
475.025
463.029
452.413
436.558
439.091
96.2234
540.911
525.23
500.809
482.662
474.578
462.719
452.179
436.458
438.999
96.1279
536.851
522.09
498.355
480.831
473.335
461.851
451.494
436.186
438.812
96.033
577.867
555.396
524.674
501.001
488.916
473.547
457.907
439.799
441.427
99.6314
492.18
485.565
469.383
460.36
459.076
452.058
448.045
435.52
441.421
92.1189
627.646
597.62
557.727
526.284
510.452
491.418
475.02
454.21
465.922
132.063
397.374
402.346
394.046
390.678
396.959
395.135
393.018
384.988
395.628
75.5439
862.19
819.745
770.462
728.237
699.83
671.678
648.41
617.865
660.932
337.746
-215.288
-190.75
-174.112
-156.403
-136.893
-124.971
-115.984
-104.943
-122.884
-180.453
2388.85
2285.25
2163.81
2047.96
1963.21
1887.79
1825.27
1739.7
1846.2
1089.7
)
;

boundaryField
{
    walls
    {
        type            fixedValue;
        value           uniform 0;
    }
    topInlet
    {
        type            fixedValue;
        value           nonuniform 0();
    }
    bottomInlet
    {
        type            fixedValue;
        value           nonuniform 0();
    }
    outlet
    {
        type            fixedValue;
        value           uniform 0;
    }
    frontBack
    {
        type            empty;
    }
    procBoundary3to2
    {
        type            processor;
        value           nonuniform List<scalar> 
20
(
2461.5
-257.152
897.147
374.371
654.234
487.789
598.759
549.782
555.384
556.958
557.048
555.818
550.676
600.297
495.324
659.185
386.45
907.417
-245.054
2494.74
)
;
    }
}


// ************************************************************************* //
