/*--------------------------------*- C++ -*----------------------------------*\
| =========                 |                                                 |
| \\      /  F ield         | OpenFOAM: The Open Source CFD Toolbox           |
|  \\    /   O peration     | Version:  4.x                                   |
|   \\  /    A nd           | Web:      www.OpenFOAM.org                      |
|    \\/     M anipulation  |                                                 |
\*---------------------------------------------------------------------------*/
FoamFile
{
    version     2.0;
    format      ascii;
    class       surfaceScalarField;
    location    "0.2";
    object      phi;
}
// * * * * * * * * * * * * * * * * * * * * * * * * * * * * * * * * * * * * * //

dimensions      [0 3 -1 0 0 0 0];

internalField   nonuniform List<scalar> 
370
(
0.000615198
-0.000110204
0.000586403
-0.000120765
0.000558111
-0.000127984
0.000533243
-0.000123714
0.000511485
-0.000121294
0.000492242
-0.00011901
0.00047478
-0.000116715
0.000460258
-0.000113754
0.000438789
-0.000114983
-6.76299e-05
0.000931236
-7.80808e-05
0.000898686
-8.82149e-05
0.00086665
-9.59475e-05
0.000837982
-9.50461e-05
0.000812031
-9.53424e-05
0.000788495
-9.54734e-05
0.000766886
-9.51065e-05
0.000747827
-9.46956e-05
0.00072481
-9.19656e-05
-5.19335e-05
0.00119572
-4.48747e-05
0.00116118
-5.36787e-05
0.00112653
-6.12928e-05
0.00109479
-6.3312e-05
0.00106529
-6.58402e-05
0.0010379
-6.80889e-05
0.00101249
-6.96923e-05
0.000988759
-7.09642e-05
0.000964835
-6.80419e-05
-3.9279e-05
0.00137499
-1.71856e-05
0.00134446
-2.31494e-05
0.00131235
-2.9182e-05
0.00128172
-3.26841e-05
0.0012522
-3.63231e-05
0.00122395
-3.98311e-05
0.00119704
-4.27855e-05
0.00117148
-4.54024e-05
0.00114701
-4.35775e-05
-2.5886e-05
0.00146039
5.04167e-07
0.00143982
-2.58084e-06
0.001417
-6.36047e-06
0.00139409
-9.77317e-06
0.0013709
-1.31288e-05
0.00134761
-1.65456e-05
0.00132446
-1.9638e-05
0.00130156
-2.25041e-05
0.00127988
-2.18947e-05
-1.43638e-05
0.00146398
9.43929e-06
0.0014538
7.60346e-06
0.0014424
5.04344e-06
0.00143055
2.06993e-06
0.00141801
-5.8214e-07
0.00140471
-3.24846e-06
0.00139068
-5.60661e-06
0.00137595
-7.7743e-06
0.00136186
-7.81082e-06
-6.30171e-06
0.00159304
8.46146e-06
0.00159363
7.01627e-06
0.00159341
5.26561e-06
0.00159223
3.24338e-06
0.00159008
1.5722e-06
0.00158679
3.56398e-08
0.00158235
-1.15864e-06
0.0015767
-2.12995e-06
0.00157141
-2.51611e-06
-2.44494e-06
0.000721466
3.92938e-06
0.00072543
3.05186e-06
0.00072864
2.05579e-06
0.000730898
9.85108e-07
0.000732395
7.5017e-08
0.000733184
-7.52584e-07
0.000733302
-1.27688e-06
0.000732847
-1.67489e-06
0.000732283
-1.95273e-06
-1.79697e-06
0.000333035
1.38955e-06
0.000335256
8.30367e-07
0.000337079
2.33667e-07
0.000338399
-3.35472e-07
0.000339329
-8.54913e-07
0.000339907
-1.33047e-06
0.000340155
-1.52441e-06
0.000340154
-1.67464e-06
0.000340014
-1.81256e-06
-1.63765e-06
0.000154441
1.78023e-07
0.000155501
-2.28866e-07
0.000156371
-6.36347e-07
0.000157003
-9.67954e-07
0.000157451
-1.3027e-06
0.000157733
-1.61305e-06
0.000157861
-1.65171e-06
0.000157876
-1.69016e-06
0.000157814
-1.75025e-06
-1.57698e-06
0.000154431
-1.03512e-06
0.000155491
-1.28939e-06
0.000156362
-1.50722e-06
0.000156995
-1.60084e-06
0.000157443
-1.7505e-06
0.000157725
-1.89529e-06
0.000157852
-1.77838e-06
0.000157867
-1.70486e-06
0.000157803
-1.68696e-06
-1.51577e-06
0.000332938
-3.59038e-06
0.000335171
-3.5232e-06
0.000337002
-3.33776e-06
0.000338327
-2.92567e-06
0.000339257
-2.68114e-06
0.000339833
-2.47077e-06
0.000340075
-2.02068e-06
0.000340068
-1.6978e-06
0.000339919
-1.53824e-06
-1.35186e-06
0.000720875
-8.21279e-06
0.000724913
-7.56132e-06
0.000728175
-6.59952e-06
0.000730461
-5.21201e-06
0.000731969
-4.18864e-06
0.000732748
-3.25055e-06
0.000732842
-2.11416e-06
0.000732353
-1.20863e-06
0.000731746
-9.31962e-07
-6.78446e-07
0.00159009
-9.49973e-06
0.00159094
-8.41497e-06
0.00159092
-6.58301e-06
0.00158986
-4.15017e-06
0.00158774
-2.06337e-06
0.00158443
5.09221e-08
0.00157991
2.41049e-06
0.00157413
4.57313e-06
0.00156865
4.54717e-06
3.28551e-06
0.00146103
-5.30377e-07
0.00145081
1.80394e-06
0.00143934
4.89327e-06
0.00142742
7.77162e-06
0.00141475
1.06058e-05
0.00140124
1.35547e-05
0.00138697
1.66821e-05
0.00137194
1.96021e-05
0.00135753
1.89624e-05
1.15612e-05
0.00145784
1.74356e-05
0.00143696
2.2679e-05
0.00141381
2.80413e-05
0.00139054
3.10423e-05
0.00136695
3.42039e-05
0.00134321
3.72912e-05
0.00131959
4.03011e-05
0.0012962
4.29943e-05
0.00127401
4.11468e-05
2.33535e-05
0.00137277
4.55107e-05
0.00134175
5.37007e-05
0.00130904
6.07459e-05
0.00127778
6.23047e-05
0.00124759
6.44008e-05
0.00121863
6.62512e-05
0.00119105
6.78722e-05
0.00116487
6.91805e-05
0.00113981
6.62078e-05
3.70837e-05
0.00119335
7.9297e-05
0.00115808
8.89752e-05
0.00112258
9.62443e-05
0.00108999
9.48909e-05
0.00105964
9.47578e-05
0.00103144
9.44513e-05
0.0010053
9.40073e-05
0.000980944
9.3539e-05
0.000956422
9.07293e-05
5.00868e-05
0.000928199
0.000112194
0.000894749
0.000122425
0.000861754
0.00012924
0.00083218
0.000124465
0.00080536
0.000121578
0.000781034
0.000118777
0.000758778
0.000116263
0.000739195
0.000113122
0.000715673
0.000114252
6.60387e-05
0.00061147
0.000581749
0.000552528
0.000526829
0.000504299
0.000484369
0.000466401
0.000451492
0.000429737
)
;

boundaryField
{
    walls
    {
        type            calculated;
        value           nonuniform List<scalar> 
20
(
0.000139004
0.00014956
0.000156275
0.000148583
0.000143051
0.000138253
0.000134177
0.000128276
0.000136452
8.1627e-05
0.000141836
0.000152146
0.000158461
0.000150164
0.000144108
0.000138707
0.000134231
0.000128032
0.000136007
8.03443e-05
)
;
    }
    topInlet
    {
        type            calculated;
        value           nonuniform 0();
    }
    bottomInlet
    {
        type            calculated;
        value           nonuniform 0();
    }
    outlet
    {
        type            calculated;
        value           nonuniform List<scalar> 
20
(
0.000424792
0.000709114
0.000952181
0.00113362
0.00126836
0.0013538
0.00156755
0.000731635
0.000339855
0.000157753
0.000157742
0.000339756
0.000731073
0.00156469
0.00134925
0.00126222
0.00112608
0.000943419
0.000699721
0.000415431
)
;
    }
    frontBack
    {
        type            empty;
        value           nonuniform 0();
    }
    procBoundary3to2
    {
        type            processor;
        value           nonuniform List<scalar> 
20
(
-0.000643998
-0.000963359
-0.00122892
-0.00140268
-0.00147808
-0.00147292
-0.00159206
-0.000716934
-0.000330495
-0.00015323
-0.000153218
-0.000330382
-0.000716253
-0.0015888
-0.00147
-0.0014758
-0.00140085
-0.00122714
-0.000961096
-0.000641112
)
;
    }
}


// ************************************************************************* //
