/*--------------------------------*- C++ -*----------------------------------*\
| =========                 |                                                 |
| \\      /  F ield         | OpenFOAM: The Open Source CFD Toolbox           |
|  \\    /   O peration     | Version:  4.x                                   |
|   \\  /    A nd           | Web:      www.OpenFOAM.org                      |
|    \\/     M anipulation  |                                                 |
\*---------------------------------------------------------------------------*/
FoamFile
{
    version     2.0;
    format      ascii;
    class       volScalarField;
    location    "0.35";
    object      alpha.upper;
}
// * * * * * * * * * * * * * * * * * * * * * * * * * * * * * * * * * * * * * //

dimensions      [0 0 0 0 0 0 0];

internalField   nonuniform List<scalar> 
200
(
1.54148e-321
1.45255e-321
1.36362e-321
1.26481e-321
1.17588e-321
2.69048e-302
3.88161e-269
2.7164e-240
7.93801e-215
3.79783e-192
1.40315e-321
1.3241e-321
1.24505e-321
1.16599e-321
1.08694e-321
2.78238e-305
1.78043e-304
4.15147e-303
4.34759e-276
5.25633e-247
1.36362e-321
1.28457e-321
1.20552e-321
1.12647e-321
1.04742e-321
1.10667e-306
1.13154e-305
2.35263e-304
6.64213e-278
3.94347e-276
1.36362e-321
1.28457e-321
1.20552e-321
1.12647e-321
1.04742e-321
5.56449e-308
8.04422e-307
1.88027e-305
3.48412e-279
4.01734e-277
1.36362e-321
1.28457e-321
1.20552e-321
1.12647e-321
1.04742e-321
2.85676e-309
5.44631e-308
1.50867e-306
2.06746e-280
4.66545e-278
1.36362e-321
1.28457e-321
1.20552e-321
1.12647e-321
1.04742e-321
1.45752e-310
3.55692e-309
1.22237e-307
1.3506e-281
6.76415e-279
1.24505e-321
1.16599e-321
1.08694e-321
1.02766e-321
9.48606e-322
7.99571e-312
2.6745e-310
1.39274e-308
1.44742e-282
-2.77058e-272
3.00392e-321
2.78653e-321
2.57902e-321
2.3814e-321
2.19365e-321
2.69833e-312
2.24134e-310
-1.48936e-287
-1.22087e-262
-2.01279e-240
1.00228e-299
1.98422e-299
4.45155e-299
1.1296e-298
3.32782e-298
1.18801e-297
-1.06803e-288
-2.19264e-268
-3.07848e-248
-4.95248e-229
6.23216e-210
1.05778e-210
2.0488e-211
4.23939e-212
8.792e-213
1.77652e-213
3.42713e-214
6.20465e-215
1.06155e-215
1.76486e-216
0.995259
0.990024
0.984478
0.979105
0.973733
0.968271
0.96264
0.956711
0.950377
0.94379
1
1
1
1
1
1
1
1
1
1
1
1
1
1
1
1
1
1
1
1
1
1
1
1
1
1
1
1
1
1
1
1
1
1
1
1
1
1
1
1
1
1
1
1
1
1
1
1
1
1
1
1
1
1
1
1
1
1
1
1
1
1
1
1
1
1
1
1
1
1
1
1
1
1
1
1
1
1
1
1
1
1
1
1
1
1
1
1
1
1
)
;

boundaryField
{
    walls
    {
        type            zeroGradient;
    }
    topInlet
    {
        type            fixedValue;
        value           nonuniform 0();
    }
    bottomInlet
    {
        type            fixedValue;
        value           nonuniform 0();
    }
    outlet
    {
        type            inletOutlet;
        inletValue      nonuniform 0();
        value           nonuniform 0();
    }
    frontBack
    {
        type            empty;
    }
    procBoundary1to0
    {
        type            processor;
        value           nonuniform List<scalar> 
20
(
1.19564e-321
1.12647e-321
1.10671e-321
1.09683e-321
1.09683e-321
1.09683e-321
9.88131e-322
2.33199e-321
4.84528e-300
9.5634e-201
1
1
1
1
1
1
1
1
1
1
)
;
    }
    procBoundary1to2
    {
        type            processor;
        value           nonuniform List<scalar> 
20
(
9.1345e-172
5.13089e-221
7.93443e-251
5.20889e-252
5.23513e-253
7.61861e-254
-4.21486e-246
-5.41903e-220
-7.09123e-211
-8.51532e-208
0.937227
1
1
1
1
1
1
1
1
1
)
;
    }
}


// ************************************************************************* //
