/*--------------------------------*- C++ -*----------------------------------*\
| =========                 |                                                 |
| \\      /  F ield         | OpenFOAM: The Open Source CFD Toolbox           |
|  \\    /   O peration     | Version:  4.x                                   |
|   \\  /    A nd           | Web:      www.OpenFOAM.org                      |
|    \\/     M anipulation  |                                                 |
\*---------------------------------------------------------------------------*/
FoamFile
{
    version     2.0;
    format      ascii;
    class       surfaceScalarField;
    location    "0.35";
    object      alphaPhi;
}
// * * * * * * * * * * * * * * * * * * * * * * * * * * * * * * * * * * * * * //

dimensions      [0 3 -1 0 0 0 0];

internalField   nonuniform List<scalar> 
370
(
0
0
0
0
0
0
0
0
0
0
2.6613e-305
9.69258e-309
3.74248e-272
-1.23759e-309
2.55694e-243
-5.99409e-308
7.30277e-218
-9.52442e-281
-1.5198e-251
0
0
0
0
0
0
0
0
0
0
3.74105e-308
5.68306e-310
2.35482e-307
2.66796e-309
5.39191e-306
3.89418e-308
5.53882e-279
1.25506e-281
-1.34897e-281
0
0
0
0
0
0
0
0
0
0
1.66236e-309
3.10006e-311
1.69039e-308
2.62909e-310
3.49333e-307
4.32992e-309
9.79231e-281
8.95102e-283
3.44278e-281
0
0
0
0
0
0
0
0
0
0
8.59653e-311
1.605e-312
1.24188e-309
1.95538e-311
2.89981e-308
3.75926e-310
5.36479e-282
5.54666e-284
4.97197e-282
0
0
0
0
0
0
0
0
0
0
4.42934e-312
7.98968e-314
8.4476e-311
1.29168e-312
2.34019e-309
3.00272e-311
3.20572e-283
3.41528e-285
6.37055e-283
0
0
0
0
0
0
0
0
0
0
2.23996e-313
4.07463e-315
5.46464e-312
8.61129e-314
1.87652e-310
2.5787e-312
2.07065e-284
2.50239e-286
1.11586e-283
0
0
0
0
0
0
0
0
0
0
1.29623e-314
2.47609e-316
4.32677e-313
7.37573e-315
2.24789e-311
3.46533e-313
2.33017e-285
3.27873e-287
-5.75465e-277
0
0
0
0
0
0
0
0
0
0
1.62986e-315
4.87068e-317
1.38059e-313
3.50461e-315
-9.33897e-291
-2.05588e-292
-7.78111e-266
-1.50854e-267
-2.24782e-245
1.68134e-303
2.65019e-304
3.84014e-303
3.11798e-304
9.50074e-303
5.24939e-304
2.59465e-302
1.07075e-303
8.0937e-302
2.59978e-303
3.02491e-301
7.89407e-303
-2.82424e-292
-6.21775e-294
-5.98618e-272
-1.14572e-273
-8.6381e-252
-1.46913e-253
-2.17487e-234
1.0374e-205
3.4847e-205
2.55054e-206
7.82351e-206
6.34594e-207
1.91595e-206
1.55442e-207
4.79152e-207
3.68402e-208
1.18602e-207
8.35092e-209
2.84893e-208
1.79564e-209
6.55528e-209
3.63924e-210
1.43171e-209
6.9163e-211
2.94761e-210
5.68897e-211
6.75238e-05
-2.55486e-05
8.20948e-05
-1.4571e-05
9.25901e-05
-1.04953e-05
0.000100659
-8.06898e-06
0.000106959
-6.29963e-06
0.000111989
-5.03002e-06
0.000116082
-4.09298e-06
0.000119436
-3.35388e-06
0.000122187
-2.75183e-06
-2.28742e-06
0.000166566
-5.42633e-05
0.000192535
-4.05394e-05
0.000212581
-3.0542e-05
0.000228977
-2.44641e-05
0.000242588
-1.9911e-05
0.000254069
-1.65113e-05
0.000263944
-1.3968e-05
0.000272572
-1.19815e-05
0.000280198
-1.03779e-05
-9.10242e-06
0.000527869
-6.03802e-05
0.000543203
-5.58738e-05
0.000558776
-4.61152e-05
0.000573705
-3.93929e-05
0.000587937
-3.41429e-05
0.000601144
-2.97182e-05
0.000613337
-2.61616e-05
0.000624633
-2.32772e-05
0.000635125
-2.08706e-05
-1.88941e-05
0.00163871
-4.90995e-05
0.00163034
-4.75003e-05
0.00162595
-4.17208e-05
0.00162249
-3.59385e-05
0.00161938
-3.10279e-05
0.00161625
-2.65924e-05
0.00161278
-2.26878e-05
0.00160889
-1.93863e-05
0.00160467
-1.66531e-05
-1.4577e-05
0.00153869
-4.56288e-05
0.00153611
-4.49169e-05
0.0015355
-4.11091e-05
0.00153568
-3.61233e-05
0.00153587
-3.12148e-05
0.00153579
-2.65176e-05
0.0015352
-2.20961e-05
0.00153388
-1.80647e-05
0.00153172
-1.44878e-05
-1.15802e-05
0.00154889
-4.38923e-05
0.00154766
-4.36906e-05
0.00154762
-4.10657e-05
0.00154838
-3.68907e-05
0.00154934
-3.21725e-05
0.00155021
-2.7388e-05
0.00155078
-2.26696e-05
0.00155081
-1.80904e-05
0.00155014
-1.38195e-05
-1.02819e-05
0.00155032
-4.23827e-05
0.00154844
-4.18093e-05
0.00154713
-3.97519e-05
0.00154626
-3.603e-05
0.00154554
-3.14523e-05
0.00154477
-2.66128e-05
0.00154376
-2.16583e-05
0.00154217
-1.65037e-05
0.00153963
-1.12811e-05
-6.67419e-06
0.00153416
-3.73133e-05
0.00152878
-3.64233e-05
0.00152281
-3.37857e-05
0.00151621
-2.94254e-05
0.00150919
-2.44386e-05
0.00150163
-1.90445e-05
0.00149349
-1.35248e-05
0.00148441
-7.41975e-06
0.00147385
-7.19441e-07
5.73162e-06
0.00143434
-2.20143e-05
0.00141777
-1.98581e-05
0.00140056
-1.65744e-05
0.001382
-1.08616e-05
0.00136309
-5.53418e-06
0.00134286
1.18588e-06
0.00132066
8.67856e-06
0.00129683
1.64102e-05
0.00127213
2.39767e-05
3.09999e-05
0.00113566
0.00110497
0.00107379
0.00104379
0.00101466
0.000987552
0.000962942
0.000940493
0.000919494
)
;

boundaryField
{
    walls
    {
        type            calculated;
        value           nonuniform List<scalar> 
20
(
0
0
0
0
0
7.29174e-307
1.24021e-273
1.01321e-244
3.43139e-219
1.88308e-196
9.28204e-06
1.08262e-05
1.46063e-05
1.91418e-05
2.35902e-05
2.82985e-05
3.32885e-05
3.88596e-05
4.49759e-05
5.14782e-05
)
;
    }
    topInlet
    {
        type            calculated;
        value           nonuniform 0();
    }
    bottomInlet
    {
        type            calculated;
        value           nonuniform 0();
    }
    outlet
    {
        type            calculated;
        value           nonuniform 0();
    }
    frontBack
    {
        type            empty;
        value           nonuniform 0();
    }
    procBoundary1to0
    {
        type            processor;
        value           nonuniform List<scalar> 
20
(
0
0
0
0
0
0
0
0
-6.75018e-304
-4.03332e-205
-4.19753e-05
-0.000137852
-0.000521752
-0.00165
-0.00154216
-0.00155062
-0.00155183
-0.00153923
-0.00144964
-0.00116695
)
;
    }
    procBoundary1to2
    {
        type            processor;
        value           nonuniform List<scalar> 
20
(
3.41541e-195
6.56257e-250
5.76584e-279
6.17119e-280
7.22809e-281
1.03512e-281
-4.44847e-275
-1.30216e-243
-1.42321e-232
1.22733e-211
0.000124475
0.000287013
0.000644917
0.00160035
0.00152872
0.00154884
0.00153602
0.00146144
0.00124686
0.000899016
)
;
    }
}


// ************************************************************************* //
